 VARIABLES = "X" "Y"
 ZONE T="  0.000000000000000E+000 " N=        9944  E=       19548
 ZONETYPE=FETRIANGLE DATAPACKING=BLOCK
  -19.9782054645671       -16.7460447536127       -13.5432470514743       -10.4462771124608       -7.39483127129757       -4.39431260318683       -1.43672854734527        1.47853524247441        4.40194279230921        7.38347804238703        10.4122197804982        13.5308676756442        16.7310607632789        20.0189460056259        20.0156650185539        20.0123451374732     
   20.0090067226427        20.0056742799471        20.0022854763303        19.9988742323503        19.9954939648514        19.9920871178897        19.9886881104951        19.9853470049941        19.9820070605281        19.9783478910574        16.7317203104092        13.4557822172063        10.1645634122701        6.87452312340184        3.53259687976399       0.170578499054329     
  -3.16443525887912       -6.48474521199279       -9.79114624567630       -13.0836966857758       -16.3754018560739       -20.0188035791356       -20.0155069002833       -20.0121812769038       -20.0088400757232       -20.0054989473046       -20.0021446450312       -19.9987763328347       -19.9953939522161       -19.9920253568386       -19.9886729196427       -19.9853365630757     
  -19.9819979716434       0.999790763185755       0.998274334401370       0.996762178799674       0.995260124822375       0.993713370894602       0.992105568524797       0.990431856470583       0.988696700794684       0.986899972725428       0.985039330988553       0.983100753721026       0.981092772715189       0.978999175379545       0.976832637118035       0.974589288378740     
  0.972261704562029       0.969847322734246       0.967345312243212       0.964753345252085       0.962071777755127       0.959295619385314       0.956417046802757       0.953424924374074       0.950309817206222       0.947100488756071       0.943775233027663       0.940301423577239       0.936721507301627       0.933023342181435       0.929185417154153       0.925172739945993     
  0.921015993218821       0.916709897801024       0.912240521012876       0.907598845358650       0.902778379699319       0.897772552517064       0.892568720375812       0.887154053217441       0.881520822244760       0.875661190839804       0.869576243771644       0.863258676745036       0.856700463505697       0.849891506072241       0.842822860971271       0.835485964194878     
  0.827874367736736       0.819979575371097       0.811793260070598       0.803306986794019       0.794511870471703       0.785400233520915       0.775963156910983       0.766076179705571       0.755828502285395       0.745208742924765       0.734206292952955       0.722814234202688       0.711020296969133       0.698811958910668       0.686182120481038       0.673119191511348     
  0.659609447577199       0.645645730579256       0.631214788481797       0.616300191109715       0.600891114142390       0.584967217797785       0.568516350707769       0.551523375029373       0.534578630301258       0.517599922698909       0.500555028922516       0.483444087993594       0.466266745828448       0.448373131669975       0.431079680654068       0.414384446700089     
  0.398285358723641       0.382766111979823       0.367741712724725       0.353193541333172       0.339117280885929       0.325521526214114       0.312391061165781       0.299726735262658       0.287529301831988       0.275780320142815       0.264454616051655       0.253504629536664       0.242917637739615       0.232681154386378       0.222787830025130       0.213229487047113     
  0.203994375693591       0.195071193297026       0.186455274037387       0.178130320692281       0.170086599424696       0.162307072444494       0.154784868565766       0.147513563167007       0.140487027010316       0.133699019666480       0.127142622764853       0.120812244789546       0.114702657460073       0.108808536276637       0.103125330220407       9.764865248935486E-002
  9.237430699212897E-002  8.729880114335031E-002  8.241839946570570E-002  7.772934019098006E-002  7.330957157571170E-002  6.905230822856663E-002  6.495920554432455E-002  6.102851377541107E-002  5.726035589599222E-002  5.363273008803639E-002  5.015725559257433E-002  4.683183768710679E-002  4.363877013486645E-002  4.054888830368340E-002  3.755906012221802E-002  3.464644901755935E-002
  3.181135719675519E-002  2.905880221489313E-002  2.639156621593927E-002  2.381355238929806E-002  2.133081864458251E-002  1.895093799619731E-002  1.679249082681408E-002  1.471365125157742E-002  1.273402659087319E-002  1.087245012814532E-002  9.153674873534846E-003  7.512715291790760E-003  5.912757089868645E-003  4.456449381215096E-003  3.134370215920915E-003  1.983828037499776E-003
  1.064298818110365E-003  4.438707360416860E-004  1.391759383082821E-004  6.974560474823366E-005  3.110006852101312E-004  9.081846901306094E-004  1.814256973253010E-003  2.941339127877151E-003  4.218862477401789E-003  5.592647727939461E-003  7.255961700368000E-003  9.008103552061572E-003  1.086396142314084E-002  1.273851425318299E-002  1.466075420527366E-002  1.667786183719976E-002
  1.883982220347363E-002  2.111345971859297E-002  2.350854421090568E-002  2.596617780741638E-002  2.849376956345736E-002  3.113485267390579E-002  3.392863043300991E-002  3.687266258431155E-002  3.995663732833226E-002  4.316870782446876E-002  4.649815222715733E-002  4.993322943573684E-002  5.347057745993502E-002  5.711006778251435E-002  6.084442575722963E-002  6.503145722283440E-002
  6.936387711250008E-002  7.383916683766960E-002  7.845425454646618E-002  8.314090330585309E-002  8.796788172963396E-002  9.296135547318489E-002  9.811930553523487E-002  0.103443871588759       0.108925432292293       0.114583382199242       0.120458581870490       0.126600610439281       0.133022531421238       0.139727635243706       0.146712570256505       0.153978675775262     
  0.161529158327145       0.169365156324639       0.177490733902286       0.185909486928467       0.194625979666094       0.203824987707819       0.213365444705660       0.223253227565417       0.233497535991657       0.244106787676646       0.255088277375493       0.266452525817102       0.278210467060463       0.290369812276280       0.302941583097641       0.315938321184759     
  0.329367764515127       0.343240090709752       0.357568997050789       0.372355082845763       0.387609321371339       0.403338143264259       0.419527402277306       0.436187791181075       0.453262223629001       0.470742751073368       0.488303208968418       0.505736619681422       0.523041151662888       0.540219076046162       0.557273972078738       0.573887031270239     
  0.590034266556297       0.605695582960150       0.620869536924808       0.635557854877909       0.649724197840682       0.663379645609834       0.676539194257152       0.689220497044863       0.701443628046916       0.713259829197286       0.724710798151545       0.735804394420702       0.746548742430649       0.756945864714457       0.767004038656850       0.776731971675800     
  0.786138373968059       0.795144981521812       0.803821013695508       0.812171256695943       0.820201585572361       0.827916641198555       0.835320764740723       0.842421222767722       0.849280776258130       0.855929419277061       0.862370269780827       0.868607146282547       0.874643952099243       0.880484713504870       0.886132753526585       0.891591213467330     
  0.896863571318595       0.901954207905216       0.906870889787351       0.911618185358133       0.916200616430970       0.920428455266353       0.924540090251966       0.928533636016673       0.932411984272814       0.936160153567620       0.939775129737242       0.943263287716575       0.946616853043981       0.949839449474027       0.952946459968612       0.955913738627441     
  0.958747963161328       0.961505682954214       0.964183839122002       0.966780591658901       0.969294689549502       0.971725559405751       0.974074387605917       0.976342229873454       0.978532418755104       0.980648877501906       0.982643346902449       0.984583149916554       0.986453599427155       0.988259465012556       0.990004731861525       0.991690710619221     
  0.993312960590325       0.994872768464370       0.996372665341831       0.997868616405608      -1.151933427104820E-003 -9.373069814063130E-004 -1.114513705871448E-003  0.996037595410635       0.997478278405649       0.996030580055595       0.997257553591060      -2.584788297685573E-003 -4.580827423559429E-004  0.995692881659511       0.996470875897375      -2.114592171859026E-003
  0.994648145977538      -2.460187752631481E-003  0.994145811012145       0.992486097167639      -7.785766269715652E-004  0.992929790679994       0.993911099094146      -2.523411162528548E-003 -4.054641701849138E-003  0.994997594462763       0.995156070272765       0.998897589597325      -1.491114762681858E-003  3.086719942214956E-004  0.991181792659092       0.989413780274122     
  0.987641794714155       0.992025083728363       0.998203257799376       0.993479667472464       0.991266470545142      -2.144346610709357E-005 -2.206044063717467E-003 -4.159921391261222E-003  0.992912576827597       0.997449369413520        1.00054677945025       0.998188105412359        1.00123011665827      -3.418829461362505E-003  1.348385123521363E-003  0.996573495070746     
  0.996994000611483       0.999550574226991       0.989535477938888       0.990197376978003       0.988348307413404       0.986436795907538       0.990997933690953       0.992774336294305       1.053751757016612E-003 -9.184422680267188E-004  3.669104566462042E-003   1.00233293537611       0.990519186851393      -5.504305404793170E-003  2.627391568783426E-003  0.991032794838241     
  0.987647360767973       0.989039216671066       2.280086024462406E-003 -4.239088624448890E-003  0.991773617963577       0.999964713998575       0.999406258195853       4.112400327328905E-003  0.989203899878056      -2.642741629546161E-003 -3.877162561310235E-003   1.00324431369948        1.00130558544208       0.994921211272243       0.999052663969838        1.00112533855688     
  0.993815851381496       7.479484215968969E-003 -2.668902903210867E-003  0.999678817577334       0.998816280302573       5.765443988411570E-003  0.985677866224383       0.983687746928332       0.991923372257265       0.998052173512993       0.986933424326338      -5.986902511510913E-003  0.988339924231783       9.157627365392445E-003 -5.738675517508304E-004  6.272841428444077E-004
 -5.461644369478581E-003  0.984344399313995        1.00351546349570       0.987219473217967       0.985015812599521       0.997878992972855       0.995847680571266      -1.550380674153561E-003   1.00410943182039        1.00598574333218        1.00185247548688       0.984783247586799       0.982530504876306        1.00093858197865       0.994236983096260       0.986145444343257     
 -4.855354482352979E-003  5.754798202389199E-003  1.562409952731447E-003  7.529450243816268E-003 -7.220969043212243E-003 -1.884088334865919E-003 -1.516633862864697E-004  2.308895784978487E-004  2.096173187506239E-003  0.994801766988007        1.00268110874981       0.995655626313786       0.988345481423784       0.992626490679439       0.981967449776707       0.979810366109080     
  0.982795536826717       3.819939393024960E-003 -5.693528388094081E-003 -7.583162701120099E-003  0.977660973709405       0.989747753649241       5.245084876903727E-003  0.986071196405005       0.990951461849683       0.993764281292940        1.00043977187369       0.999661170821099       3.103883780668779E-003   1.00544762000795        1.00442152256311       0.996646631017482     
  0.998598353378870       6.298469926220527E-003   1.00009084432033        1.00239179224608       1.094008502499499E-002   1.00298432317106        1.00694214976117        1.00467810012587        1.00727689666575       0.990154336917787       0.993254269693418       0.989068164115358       1.559221212251652E-003  6.994174038525767E-003  0.990100657419771       0.985991849198493     
  0.983336704877857       8.941587474586333E-003 -6.220956464275459E-003 -4.053897104997423E-003 -2.601898146172178E-003 -3.893249852877465E-003  0.991434198218410       0.992549494139664       0.980675981675633       0.978481176804317       0.976100952118669       1.078160675288993E-002  0.992076318980024       0.996090430442834       0.995066047666578       0.997133083801781     
  4.840948819432740E-003  1.271579867123254E-002  0.987675941060513       0.987366747320230        1.00331074488894       0.989377658504617       8.858620454066053E-003  0.987418433413316      -4.275186112095140E-003 -8.145590953202284E-003  0.981469200995386       0.980130552711872       1.293210430666221E-002  0.981925825333088       0.977630766466304      -6.246163168645021E-003
  0.985424750105744      -7.620618255847417E-003  1.097167156753342E-002  0.994614716967421      -3.161491768033840E-003  3.635152899536876E-003  0.975340795678090       1.074898994371257E-002 -7.032995301180440E-004  7.788044623934416E-004  1.469555516187004E-002 -9.925860911937747E-004  6.740854737000848E-003  0.978746360878096      -6.397480222767032E-003 -9.118157380186344E-003
  8.747752351184399E-003   1.00565090175534        1.00854274109850       0.979568071752626       0.977114713439606       0.973999380484096       0.984652396276527       0.982508975887673       0.993794261613420      -1.752791834889912E-003  1.265378754585159E-002 -9.907749668609233E-003  0.976710602640755       0.974336124680925       1.504527830715424E-002  4.429999401659037E-003
  8.705192637169368E-003  1.077976059649408E-002  0.972976389335286       0.970581114674231      -8.385852043943195E-003 -1.051445181291246E-002 -6.851882389626376E-005  1.315959436649499E-002  0.983763680983170       0.980926277511546       0.982823690536663       0.980186136680124       0.981012945587609       0.980564919631292        1.00895997479133        1.00568179011195     
 -6.055233260543471E-003  9.714041997027255E-004   1.00220347107345        1.00143596132068       0.984830726879217        1.00433309000091        1.00398180095523       0.971831194117406       1.724941059842831E-002  0.981862535413058       0.983256494660636       1.110660481584295E-002  0.998718114004311       0.989606816916099       0.969245864667257      -3.723796732291139E-003
 -5.210483351324142E-003  0.985680148490920       0.996065221349670       1.539902917031380E-002  0.979505485028404       2.499572688254359E-003  1.680116071156393E-002  1.464738164317296E-002  0.973632895936055        1.00793961127373       0.978730412146669        1.00143684527518        1.00036809995853       0.978352551652179       0.997656219382349       1.346203140567802E-002
 -4.511320935005165E-003 -8.440858982942912E-003 -2.871089680041224E-003 -1.013599232444353E-002 -9.768135517425759E-003  3.401092138604047E-003  0.975761178209087       0.975898615252141       0.973310171078628       1.151239748106871E-002   1.00959050866664       0.970936273783562       0.968467828098992       6.542044268427938E-003  0.971827515966822       0.965978384397452     
  0.963738607068799       8.790447430627388E-003 -7.965035400277163E-003 -1.089295567432156E-002 -1.946873497225258E-003  1.905253681271526E-002  1.687485706108551E-002  0.996534359934223        1.00316391433246      -1.195878680341687E-002  0.983050260215382       0.979872770826993      -9.786876228578371E-004 -7.362490815810906E-003  1.451412914389520E-002   1.00207822251372     
 -1.069964550318698E-002 -1.302313066438167E-002  0.977689998157344       0.977202714789374       8.783798843301108E-003  9.372951245395288E-003  0.987639379522589        1.01106269212999       0.990544947140671       1.572681105134380E-002  1.865738998903315E-003  0.969617903450384       0.967123414595582       0.964486494675215       0.961424519103780       1.770994660481348E-002
  1.975198247566196E-004  0.970594195513592       1.383501944504085E-002  1.957066825368513E-002 -1.231291374756844E-002  0.993450618782508       0.994850334016305       0.997595179820179       6.462972623467799E-003 -6.558476729310634E-003   1.00627995815996        1.00624466847914       0.967742050169203      -5.858045276090003E-003 -4.927139314963923E-003  4.039931212008045E-003
  0.971002227957663       1.267223200863604E-002  0.999293647661958        1.00098324345698       2.140833638122794E-002  1.926069388622160E-002  1.694218638804944E-002 -4.079678691262644E-003  2.200038734352614E-002  0.975048626146901       0.972217941009455      -1.474868293661812E-002  0.988008151804801      -1.065897607960815E-002   1.01069432699597       1.578814090619116E-002
  9.202286414946541E-003  2.014492152953438E-002   1.00488272633556       0.968424153757506       0.965843104365460       0.996222131890832       0.962875009484747       2.378016995720222E-002  6.088898224245470E-003  2.172181591872021E-002   1.00887259187924       6.323237412164012E-003  3.664880438838211E-003  3.325859375682543E-003  1.811551866011637E-002  3.216101833248529E-003
 -8.964875198524824E-003  0.990512212399743       0.985514865542105       0.983490732104859       0.985910960099670       0.987949887636467       0.995230589724823       1.439002352447625E-002 -1.980302644827974E-003  0.966338623223199       2.075482886705142E-002  0.969698871597093       0.991097415271632       0.990114898712897       0.987763288881566       0.985554848791049     
  0.988445640392440       0.989381636223483      -1.234061663891778E-002 -3.138126483774957E-003   1.00042197689510       0.984620012569697       0.968443647921586       0.998168067891062       0.996949025131528       2.611108592560142E-002   1.00832955190510        1.00655652275204        1.01009744142283        1.01179477796682      -1.311195173685927E-002 -1.570127510066779E-002
 -8.546931354810770E-003  1.954387410504399E-002  1.704487364101601E-002  1.430628388509960E-002 -1.016410887150050E-002  0.990827673229819        1.00922147525946       6.111665569417966E-003  0.980621342931625      -7.326821053239744E-003  0.992518617582131       0.993220936147011       0.994369028630968       1.207353234845770E-003  0.972551560188733       1.231332300136649E-002
  1.187795571191696E-002  0.981076364159644       0.970933095162351       0.959561174311433       0.963190558787234       0.960296869885924        1.00435465420065       0.964839967727242       0.968038649218216       0.973913714468858       0.972236074837566       0.975896995342496       0.976808941486420       0.975195875107137       0.973564473483561       0.957303531554310     
  0.954012562323834      -5.469508566462645E-003 -1.290818951938944E-002   1.01230296428727        1.01350935788312       0.982662250493984       0.980097557596002       6.491904097056824E-003  6.020948139712749E-004  5.580048161834810E-004  2.185107510900929E-004 -6.169049390769397E-003   1.01159672178030        1.00729753490083      -1.055557452160097E-002  2.865296499345594E-002
  2.582312865792486E-002 -1.508938597631652E-002  9.005243753007808E-003 -1.558361121701150E-002 -1.850492234887728E-002  0.992260181797549       0.990358911212084      -1.264193276082787E-002 -1.539739689608720E-002  2.687479480814032E-002   1.01119082614977       1.162398642394862E-002  0.986749659201518       0.987337057673491        1.00324667664622        1.00925321328320     
   1.01212005501718       0.987957974158176       0.962000411784919       0.959043734941198       0.955802508211301       0.952258708288922      -3.159630295007059E-003  0.978028584403793       0.985185399880048       0.984601562230710       0.982891454026825        1.00942049722392       0.977774917665606      -1.242160608599567E-002  0.984358042139226       0.967361871780924     
  0.969274209250081       0.970622255349010       0.971792421129638        1.01130751961944        1.01188469447773      -8.964042781397430E-003 -1.804182275783288E-002  0.963599357699716       0.974032820246329       0.971100774104051       6.056877370329740E-003   1.00739535884186      -4.235624720019187E-003 -7.917173990290150E-003   1.01211062121328        1.00440686471341     
   1.00227213293159        1.01308362548329       2.236520317495702E-002  2.955078520229115E-002  2.682912915048453E-002 -9.292364220531089E-003  2.264652883800613E-002  2.444622471787693E-002  2.355830604038343E-002  0.978293510427540       0.976985311584154       3.073695351377637E-003  2.908525623400381E-003  0.999282697474582       9.656123870626169E-003   1.01418165717570     
  0.961055870061059       0.987834079085628       0.993644274209497       0.995492857669630       0.957986272960163      -1.224654825340597E-002 -1.518959132505165E-002  0.964870017552978       0.980493363278663      -1.536354852389269E-002  0.981451860412067       0.984671896465311       0.991056438222343        1.00672142334238       0.973119475081212       0.969284173435204     
  0.966206342078700       0.963907559856446       0.967896289663464        1.01354537525501      -7.404248060552618E-003 -1.096783824974008E-002  1.139943834347201E-002  2.395889332817247E-002  1.992897660622936E-002  1.716017917968646E-002  3.139052084997943E-002  2.895603684951904E-002  2.751100329042257E-002   1.00523283431785       1.420966776001174E-002 -1.652932204732684E-003
 -1.637158909765754E-003   1.01437948091659        1.01668922105277      -1.550914455257466E-002  0.954874291772827       0.951753963725691       3.247544684032332E-002  3.019017807892125E-002  2.793205420501186E-002 -1.250669903075516E-002   1.01406572819113        1.01775574159207       0.975562241624847       0.970099287831001      -5.320738192794682E-003  8.729610153327367E-003
  6.843722258477004E-003 -1.848803468988310E-002   1.01429222119557        1.01538509526692       2.488679577204126E-002  2.147061366220070E-002  0.966176409091315       0.967695253712758       0.969190479667309       0.969375101122515       0.997989956810762        1.00574745569206        1.00847720715639        1.00427071850178      -1.079873549271501E-002 -1.326062763628478E-002
 -1.543506155717267E-002  0.948565106312930      -1.071739276121315E-002 -1.413802680804407E-002  0.975462329119226       0.956362732376691        1.00928021315172        1.01211741409622       0.981399700874643      -1.406743529078719E-002  0.991504817272243      -1.778130132827877E-002 -2.108709961993586E-002  3.539045967756147E-002  3.320638111579954E-002  3.106515627384525E-002
  2.908754885664189E-002  0.972506859608999       0.975313581533963        1.00118968729659       0.999937089370113       2.323880731088606E-002   1.00739198115334      -3.113545466999231E-005  5.838399512790226E-003  3.001814795889586E-003  0.966800105652350       0.969187972084906       0.978475584359005       2.464586083098058E-002  1.850322973195277E-002  1.584136718814475E-002
   1.00001346687108        1.00255129924194       0.999096502235930        1.00615384280150        1.01486824855996        1.01507103025172       1.289822196287835E-002   1.00380736486709       3.427166645928725E-002  3.139731062151877E-002  0.953306709740155       0.950044756287561        1.00563716865156       0.946470489907663       3.832119020748791E-002  3.608071133900066E-002
  3.395907814991733E-002   1.00921471041047       0.961115102957396       0.957624526599527       1.899209450720009E-002  0.962745494727303       0.985222038049214       0.977251242993339      -1.679243522071490E-002  0.965693674336691       2.026780291238453E-002  1.724280241483118E-002  0.964453452304867       0.966446598616349      -1.941661178786650E-004 -7.266501103945192E-003
 -1.426400592549784E-002  9.893443187925999E-003  0.963984356218215       0.961771846507808       0.968119928210689      -1.769454131015043E-002  8.420113058947366E-003  0.954824897230548       1.407442929538376E-002  2.228286291828891E-002  2.570060014682736E-002 -1.246325413820727E-002 -1.541392269437299E-002 -1.386546574204192E-002 -1.717881062017171E-002 -1.778693317836233E-002
  0.954838987443265       0.959018838273987      -2.178847028820052E-002  4.135410126642477E-002  3.894129276249975E-002  3.659194946957735E-002  3.479876183422628E-002  6.841791534157047E-003   1.01261350833908        1.01719416886271        1.01914169412894        1.00997143264710        1.01687215319620       0.971885305760268       0.975290567729366       0.960816729976560     
 -2.492750254688566E-003  3.739297342558313E-002  3.463590042825369E-002  3.161946988291511E-002  0.951967832324664       0.948190940559745       2.362835252020598E-002  0.996911276741776       4.303762330994532E-003  3.975754768809069E-003 -1.803679672314752E-002 -1.581905630816905E-002 -1.768603038475464E-002  0.962800693396490       0.958899182109855       0.978353079449150     
  5.719352624562854E-003  3.593232590911305E-003  1.318933793990188E-002  1.108691213822396E-002  0.943633284792899       0.948676155743345      -1.857442327921736E-002 -1.852827057934326E-002 -1.778169687123468E-002 -2.157176927390083E-002  0.965116624489933       4.454381731419736E-002  4.208258282576828E-002  3.914096667963470E-002  1.962153244022485E-002  0.954372437565434     
  0.957802793446051       0.959978187592360       0.950823421742518       0.956534306527266       0.952965729611677       0.949342283788840       7.732571696251733E-003 -1.232808093581317E-002  0.997935911662700       0.974595529914902       0.973381954488604      -2.037270240001285E-002 -2.035500708310479E-002  0.970880080767892       1.619875804124924E-002  1.382360102227829E-003
  0.981599528950483       0.984647698381016       1.667736132700295E-002  2.050454105224993E-002  1.731121275147681E-002  1.394742520971541E-002  4.061892941967139E-002  3.798335946535825E-002  0.978923379745474       0.973699428570181       1.003440576390405E-002  6.717754345766757E-003  0.945217306905530       0.941709040448753       9.051211560768478E-004  1.067526807289008E-002
   1.01445384972836       0.961011828108603       0.956881856360902      -1.931306580623724E-002 -2.154808971603642E-002  0.938101016828585       0.934441419839865       2.321374109016243E-002  0.947276535844660       3.513554173025141E-002  3.196534159091302E-002  2.700339174321542E-002  4.785678088640854E-002  4.545857826136211E-002  4.300275675645418E-002  4.092912875467779E-002
 -6.714493626464528E-004  0.987863750227305       0.991094610799482       0.955204335814445       3.705885498755084E-003 -2.010531129475885E-003   1.01441682525357       2.394606257558723E-002  4.389121640369402E-002  4.129652255749199E-002  3.878640492318063E-002  2.036259627102969E-002  6.887642839126555E-003  1.351285862770598E-002  0.943754973549406       0.940156173830178     
  0.942663104811400       0.987821704248357       0.994297113064782       0.994360128999558       0.945715147035933      -2.269324135106906E-003  0.958820540698360       0.951450124651498       0.947668448633771       0.988900344427854       0.992587686916187       0.938565531086601        1.01097394271756       0.991096754867682       0.934763095398945       0.956906810429416     
  0.954892785857745       0.952743087345523       0.971929389713619       0.945815354181262       0.957655433087179       1.015238564602584E-002  6.539656422688842E-003   1.01673507985103        1.01532377247340        1.01675801534866        1.01898724136262       7.866238833678765E-004 -1.452904805812053E-003  1.031300896903592E-002  4.724154379337426E-002  4.449387895286951E-002
  4.195545776149170E-002  4.047782735225256E-002  0.950550387912810       0.946431778298968       0.930753628185654       2.076290494866112E-002  1.742897397580823E-002  2.642775686776394E-002  0.989841422959111       0.978580026418191       0.982456665564260       0.986191090357450       0.975293894580945       0.975281887045074       5.127449646445847E-002  4.883890134157861E-002
  4.637285786793884E-002  4.399722250759722E-002  4.091410754189055E-002  0.953719068317368       0.956127469413053       1.392294639470333E-002  1.722383107096011E-002  0.961701668548789       0.993513665348056       0.964226334967774       0.960195785286192       0.966782299634680       0.940181339394924       0.998382275614118        1.00137956128835       0.994493313211161     
  0.942361261277969       0.938659791291250        1.00219653187943       0.948915445745309       1.387014884278235E-002   1.01789399996941       2.803663660134061E-002  3.123397015744774E-003  0.936392735037744       0.952863519422476        1.00061682943990        1.00337654109145        1.00650130838370       0.967690876742054       0.945032660890416       0.949731764912632     
  0.945162033284562       6.309136487657315E-003  5.074536309405946E-002  4.785158563608043E-002  4.467087220566054E-002 -9.403935640405241E-003 -1.248618604686495E-002 -1.589265871606765E-002 -5.706173115701119E-003 -8.070813137233077E-003 -3.783218799073998E-003  0.987679788349859       0.979728083592701       0.999719935569614       0.944469674058058       0.936770812137274     
  0.932748772811127       2.447203431188640E-002  2.837706966026225E-002  2.431173922041821E-002  0.997189530566409       0.998530075349749       0.991058123597153        1.01827461833161        1.02034029395963       0.990656073603410       0.996178149057346       0.997300197766358       0.994431798990640       0.984457612834606       0.963333862591783       1.029834584164233E-002
  6.456525018653120E-003  0.934601938901938       0.950949188310030       0.948611183715143       3.195680913899746E-002  3.085962881394998E-002  2.887452928809359E-002  0.942191368075495       0.947542689425611       0.944123272534505       5.482009184061903E-002  5.230851241608043E-002  4.971037683829515E-002  0.983529525727617       0.987083260545517       0.987581245046424     