 VARIABLES = "X" "Y"
 ZONE T="  0.000000000000000E+000 " N=        9944  E=       19548
 ZONETYPE=FETRIANGLE DATAPACKING=BLOCK
  -19.9782054645671       -16.7460447536127       -13.5432470514743       -10.4462771124608       -7.39483127129757       -4.39431260318683       -1.43672854734527        1.47853524247441        4.40194279230921        7.38347804238703        10.4122197804982        13.5308676756442        16.7310607632789        20.0189460056259        20.0156650185539        20.0123451374732     
   20.0090067226427        20.0056742799471        20.0022854763303        19.9988742323503        19.9954939648514        19.9920871178897        19.9886881104951        19.9853470049941        19.9820070605281        19.9783478910574        16.7317203104092        13.4557822172063        10.1645634122701        6.87452312340184        3.53259687976399       0.170578499054329     
  -3.16443525887912       -6.48474521199279       -9.79114624567630       -13.0836966857758       -16.3754018560739       -20.0188035791356       -20.0155069002833       -20.0121812769038       -20.0088400757232       -20.0054989473046       -20.0021446450312       -19.9987763328347       -19.9953939522161       -19.9920253568386       -19.9886729196427       -19.9853365630757     
  -19.9819979716434       0.999675551719838       0.998158103115115       0.996644932929254       0.995141873473340       0.993594086561378       0.991985213027312       0.990310388693482       0.988574082905020       0.986776167117810       0.984914298838753       0.982974447346551       0.980965150454363       0.978870185395685       0.976702236329453       0.974457431644240     
  0.972128342432443       0.969712404662271       0.967208787733820       0.964615162931224       0.961931887116033       0.959153967416433       0.956273576272207       0.953279571856563       0.950162514295743       0.946951185951008       0.943623868186934       0.940147915489738       0.936565802091494       0.932865379547686       0.929025124885593       0.925010026139769     
  0.920850786105008       0.916542123964065       0.912070100401783       0.907425694430610       0.902602413085886       0.897593683140021       0.892386856136929       0.886969097181642       0.881332675826675       0.875469753971386       0.869381420086373       0.863060369041070       0.856498573599261       0.849685933957276       0.842613505770450       0.835272724688918     
  0.827657143806112       0.819758267252099       0.811567768823249       0.803077214652420       0.794277721059224       0.785161612923452       0.775719973571475       0.765828290440074       0.755575815764407       0.744951171472854       0.733943753782055       0.722546651986315       0.710747602475985       0.698534090149329       0.685899026331258       0.672830831299836     
  0.659315792000750       0.645346766249767       0.630910517768777       0.615990633701829       0.600576312157089       0.584647236145209       0.568191284090108       0.551193351771390       0.534243977463364       0.517260959599520       0.500212086302113       0.483097519121532       0.465916928546839       0.448020372152066       0.430724531328678       0.414027439051168     
  0.397927001802664       0.382406890291265       0.367382085466121       0.352833949552488       0.338758147572514       0.325163254372965       0.312034033923751       0.299371314060315       0.287175824911507       0.275429105058385       0.264105962416423       0.253158827393249       0.242574962109556       0.232341865950573       0.222452173952889       0.212897693469721     
  0.203666661643343       0.194747763377739       0.186136317742838       0.177816019043790       0.169777122725988       0.162002585961971       0.154485527512745       0.147219512874530       0.140198403157614       0.133415948821252       0.126865223487265       0.120540627057149       0.114436922757794       0.108548778100547       0.102871633681641       9.740109443295016E-002
  9.213295605296776E-002  8.706371711031545E-002  8.218963369468262E-002  7.750693578660708E-002  7.309344477262580E-002  6.884250745500481E-002  6.475576659901103E-002  6.083146435029153E-002  5.706971207300256E-002  5.344853567356637E-002  4.997952454919066E-002  4.666057676004342E-002  4.347401116021699E-002  4.039071910960273E-002  3.740757664936085E-002  3.450180472849142E-002
  3.167371685289632E-002  2.892833178137581E-002  2.626843948523579E-002  2.369794957875447E-002  2.122292122848647E-002  1.885092395072628E-002  1.670012583030382E-002  1.462919175376632E-002  1.265769259692134E-002  1.080441593855259E-002  9.094021043698945E-003  7.461897336177806E-003  5.871616725766323E-003  4.425422186518064E-003  3.114187832280789E-003  1.975302035427379E-003
  1.068116144581799E-003  4.600744842854465E-004  1.665253499522541E-004  1.081494267207439E-004  3.633617072182229E-004  9.740787343591024E-004  1.892905983487760E-003  3.031589222643899E-003  4.319591473762400E-003  5.702835066659641E-003  7.376001352004635E-003  9.137223991404306E-003  1.100165590947938E-002  1.288404398223345E-002  1.481364155171070E-002  1.683787342555706E-002
  1.900691029404418E-002  2.128746783467519E-002  2.368935259475093E-002  2.615351753719379E-002  2.868741855550001E-002  3.133470822066153E-002  3.413467375426602E-002  3.708485502393716E-002  4.017490805672738E-002  4.339295672261901E-002  4.672825715329114E-002  5.016904863406917E-002  5.371196615873662E-002  5.735688335994334E-002  6.109651734288317E-002  6.528914214194426E-002
  6.962702100368766E-002  7.410762782026527E-002  7.872788337367920E-002  8.341947744908094E-002  8.825125380875191E-002  9.324939774504137E-002  9.841188015224830E-002  0.103740834716922       0.109226625203043       0.114888653692712       0.120767798603594       0.126913654751113       0.133339272506448       0.140047922686220       0.147036231297453       0.154305518767087     
  0.161858974045550       0.169697717562475       0.177825796928612       0.186246791492354       0.194965249399891       0.204165960007500       0.213707801408621       0.223596631172651       0.233841629907900       0.244451195817882       0.255432603988913       0.266796355291316       0.278553363488581       0.290711319498172       0.303281224284026       0.316275598280682     
  0.329702158970855       0.343571063155387       0.357895986321811       0.372677509910760       0.387926586981193       0.403649629776080       0.419832482715988       0.436485821249497       0.453552573132408       0.471024786864117       0.488576459521761       0.506000742025902       0.523295833647570       0.540464031411669       0.557508937026506       0.574111959612375     
  0.590249163438343       0.605900500202250       0.621064558566359       0.635743092111919       0.649899812384302       0.663545816065533       0.676696110671103       0.689368356499062       0.701582630598517       0.713390152724774       0.724832602482717       0.735917844612244       0.746654007610552       0.757043121942168       0.767093467446199       0.776813752937411     
  0.786212689343192       0.795212082755285       0.803881104807705       0.812224544454572       0.820248278195933       0.827956948983682       0.835354899970762       0.842449396933423       0.849303152635587       0.855946139347789       0.862381475563069       0.868612979578270       0.874644554264939       0.880480225193500       0.886123315158692       0.891576965263490     
  0.896844652879902       0.901930757284671       0.906843040318765       0.911586068350877       0.916164361085780       0.920388365131417       0.924496255261684       0.928486149022319       0.932360936653644       0.936105651670568       0.939717283967122       0.943202203812957       0.946552645169759       0.949772229608882       0.952876326785877       0.955840814518883     
  0.958672365355290       0.961427476154169       0.964103091511419       0.966697373760393       0.969209073668091       0.971637618978550       0.973984195503977       0.976249858501565       0.978437937832004       0.980552353446030       0.982544893323051       0.984482815817042       0.986351448400436       0.988155556389067       0.989899121428746       0.991583453198651     
  0.993204115652618       0.994762394530549       0.996260818741886       0.997755298664546      -1.119356574877238E-003 -9.153261522305801E-004 -1.070709650074430E-003  0.995919501306553       0.997360841442867       0.995911861507831       0.997145861302615      -2.547562793615572E-003 -4.472768695462263E-004  0.995582459736596       0.996360568658597      -2.097461975728645E-003
  0.994529152219247      -2.432664073988042E-003  0.994036631204485       0.992378476453575      -7.215051040988123E-004  0.992809631958432       0.993791043045896      -2.475472081743279E-003 -4.022013573975695E-003  0.994888191355610       0.995047479225323       0.998784797951551      -1.485108251132000E-003  3.077303541919878E-004  0.991060536989082       0.989291441171101     
  0.987518358657330       0.991903967479621       0.998091810950900       0.993371580530209       0.991160460299862       4.963777216374424E-005 -2.142553510753190E-003 -4.119192515474274E-003  0.992791519856752       0.997339357776632        1.00043336139458       0.998070288930518        1.00111537155738      -3.406348969584729E-003  1.335692141249351E-003  0.996465335683703     
  0.996874913728229       0.999434242382503       0.989430581802683       0.990075275371630       0.988225210404552       0.986312658770731       0.990891614645033       0.992667978955796       1.136438949036969E-003 -8.425600634003972E-004  3.772732456615114E-003   1.00221947403908       0.990414859636055      -5.468030811363073E-003  2.603311588427228E-003  0.990910821211423     
  0.987544360414291       0.988935448257883       2.373530402406909E-003 -4.187619360647355E-003  0.991651682088662       0.999847428207286       0.999295150559222       4.077362583526003E-003  0.989081100199528      -2.641385638547478E-003 -3.854011817166671E-003   1.00312990516945        1.00119347709968       0.994801133468814       0.998934450969201        1.00100785707149     
  0.993694820854018       7.424448658483707E-003 -2.597250803942907E-003  0.999566622675542       0.998706765065891       5.719844386752795E-003  0.985576737806968       0.983588510147528       0.991818756875627       0.997944447701254       0.986831491274643      -5.943330927137500E-003  0.988237317632357       9.095079838664420E-003 -5.793324338024372E-004  6.103579475998334E-004
 -5.443021614860873E-003  0.984218977660223        1.00340300654966       0.987095617984505       0.984890599488598       0.997759552126868       0.995727490592174      -1.560268332630900E-003   1.00399597075559        1.00587296902733        1.00173634624554       0.984683181962823       0.982432386649526        1.00082797519414       0.994130569828245       0.986044543900645     
 -4.847650965371018E-003  5.704093313685767E-003  1.659143919086673E-003  7.471046727229017E-003 -7.207240964784666E-003 -1.804837948389748E-003 -1.727872674926501E-004  3.171162412166780E-004  2.067917056159080E-003  0.994680742404996        1.00256973702357       0.995549348071108       0.988222020346618       0.992504556990582       0.981840294148109       0.979681909124747     
  0.982668744791156       3.780386794763921E-003 -5.664481096578135E-003 -7.547250500683140E-003  0.977531152874008       0.989644739869360       5.358510631652528E-003  0.985946901733071       0.990848284615241       0.993642285029969        1.00033082887304       0.999553942155011       3.210797280852284E-003   1.00533349613881        1.00430607051751       0.996526283913648     
  0.998478407254394       6.240967057430047E-003  0.999972303535982        1.00227406717091       1.086919762985443E-002   1.00287427063178        1.00682713815223        1.00456673293331        1.00716559594770       0.990031361648881       0.993149572368746       0.988966007438554       1.526715404506564E-003  7.117201775829453E-003  0.989978070687454       0.985866946316169     
  0.983210021693164       8.876326923100879E-003 -6.166591585478545E-003 -3.981259330010633E-003 -2.616124222745474E-003 -3.896558833416777E-003  0.991311198042434       0.992426448897367       0.980548054793841       0.978352021758653       0.975970337472087       1.092189259458613E-002  0.991973144722627       0.995969373578577       0.994943966832267       0.997027118932367     
  4.957759771242543E-003  1.286325780863215E-002  0.987574276379070       0.987265866005758        1.00319394641393       0.989253798737534       8.990684435994638E-003  0.987293878690164      -4.211316197129671E-003 -8.098732324768973E-003  0.981341600429087       0.980034709996071       1.285261062296754E-002  0.981828062829083       0.977537390670621      -6.181675149617854E-003
  0.985324938393230      -7.596007915025128E-003  1.089710501488568E-002  0.994510136923866      -3.078813815649578E-003  3.590818961657141E-003  0.975249488652601       1.089187714161570E-002 -6.135973885633060E-004  8.789640687919692E-004  1.484979840526540E-002 -1.017807770739076E-003  6.867209576546600E-003  0.978652302430101      -6.394830590298677E-003 -9.110050167772487E-003
  8.883033917870242E-003   1.00553455623953        1.00842688275256       0.979439593116636       0.976984830294374       0.973867069014063       0.984526278649751       0.982381702563836       0.993671113654390      -1.659577616015649E-003  1.280268336805817E-002 -9.876938916529176E-003  0.976618185172449       0.974245869000197       1.495769758572053E-002  4.550298642896689E-003
  8.635915027910598E-003  1.092470657347660E-002  0.972887316997400       0.970494314485168      -8.329127049272245E-003 -1.046485809076185E-002  3.504191602771194E-005  1.307649772891757E-002  0.983664823581098       0.980830325482286       0.982726445364323       0.980091414590716       0.980885066930456       0.980436576218458        1.00884750289722        1.00557167477608     
 -5.980851186416387E-003  9.345501213347865E-004   1.00209511823218        1.00132928893394       0.984732506306591        1.00421590163301        1.00386385861832       0.971743215611847       1.715420652084990E-002  0.981766811574134       0.983160029652815       1.102788885623516E-002  0.998612573624587       0.989504939652045       0.969160100363653      -3.742290436381926E-003
 -5.218475731505683E-003  0.985554414553068       0.995960938031743       1.530840173758383E-002  0.979411587964351       2.609932629279970E-003  1.696243557574432E-002  1.480300201412872E-002  0.973500513384199        1.00782583544896       0.978601347249958        1.00131802795180        1.00024799166016       0.978259060067915       0.997535085865857       1.337537712710039E-002
 -4.425145663567806E-003 -8.375016834417368E-003 -2.774618766768075E-003 -1.009604983662441E-002 -9.748047364201337E-003  3.351297199245125E-003  0.975630241117667       0.975807190551627       0.973221023720434       1.142940507972491E-002   1.00947591346465       0.970802039766604       0.968332114930088       6.671882336984220E-003  0.971693740476424       0.965841135110678     
  0.963600118348544       8.716775936117575E-003 -7.967576803328920E-003 -1.089081441010226E-002 -1.976178920693451E-003  1.922088414397660E-002  1.703760030647796E-002  0.996412189044582        1.00304475366517      -1.192365803007277E-002  0.982923109740734       0.979743551668357      -8.718352821139479E-004 -7.283142167785359E-003  1.467132738673645E-002   1.00195789377075     
 -1.064061715177422E-002 -1.297075821802494E-002  0.977597303687730       0.977111146533066       8.922612453620781E-003  9.516253515298684E-003  0.987539483510079        1.01094753107730       0.990443615430988       1.563377075799117E-002  1.979568806177179E-003  0.969482947080247       0.966987062334174       0.964348666417622       0.961284691600267       1.761209043184893E-002
  1.552779763428847E-004  0.970507377650475       1.374568063247852E-002  1.946786120710826E-002 -1.228597854188118E-002  0.993347661590733       0.994747647525116       0.997491265792243       6.596238246419593E-003 -6.571060687951864E-003   1.00616283894626        1.00612640130519       0.967657770404437      -5.768606268018499E-003 -4.949940479280523E-003  4.163746911969518E-003
  0.970867945729536       1.258410369896790E-002  0.999172417371958        1.00086186113028       2.158351923100235E-002  1.943046979136886E-002  1.710642338115315E-002 -3.980242821876838E-003  2.188996424841402E-002  0.974958325417314       0.972129987325670      -1.471404648912487E-002  0.987909197185902      -1.059170438985477E-002   1.01058088683541       1.569310206454971E-002
  9.124416179348263E-003  2.003944758984090E-002   1.00476327936915       0.968288553586993       0.965706274651565       0.996119845260206       0.962736292930266       2.396144994330359E-002  6.026197497022968E-003  2.189826543634495E-002   1.00875551595116       6.459877749751642E-003  3.792332493093151E-003  3.457045485442631E-003  1.801516502192350E-002  3.160899450527894E-003
 -8.881567421366282E-003  0.990412049509441       0.985417120682097       0.983394613872859       0.985813547311579       0.987851823714088       0.995107338133124       1.454870709544757E-002 -1.870052221856673E-003  0.966255494351443       2.064675100309897E-002  0.969563869175466       0.990973278298939       0.989990928909355       0.987638446738284       0.985428562350294     
  0.988320523593774       0.989256262022387      -1.232686473996855E-002 -3.171579791587718E-003   1.00031691693719       0.984524345259878       0.968358593826912       0.998045821337370       0.996825683760112       2.629784600595562E-002   1.00821942141652        1.00644745760011        1.00998617839732        1.01168248660757      -1.305056834065546E-002 -1.564577916273648E-002
 -8.474879862150453E-003  1.971500878651989E-002  1.721043953340055E-002  1.446627397910230E-002 -1.008982064648557E-002  0.990728670789484        1.00910341945810       6.043761605884564E-003  0.980527047778773      -7.234345953423526E-003  0.992416905192463       0.993119791729081       0.994268930770667       1.324786180489169E-003  0.972418138854293       1.246341817965463E-002
  1.202958946170920E-002  0.980982951294283       0.970798754630416       0.959420000606161       0.963110735486769       0.960219678881179        1.00424554806156       0.964758609001879       0.967902925839914       0.973781108891458       0.972102290470726       0.975766094280790       0.976678167146598       0.975063788419220       0.973431018134207       0.957229103970289     
  0.953941197263683      -5.367427298836112E-003 -1.283927238044415E-002   1.01218863872100        1.01339419100692       0.982534464727154       0.979968085063645       6.419025323945340E-003  5.533097321956180E-004  6.796361203356186E-004  3.444330609933171E-004 -6.196080769990858E-003   1.01147960762297        1.00717869416202      -1.046876791741621E-002  2.884659643189177E-002
  2.600932779087915E-002 -1.506802154371228E-002  9.150753494514925E-003 -1.551948562107451E-002 -1.844548637765784E-002  0.992135864987926       0.990233286560628      -1.259934990009510E-002 -1.535191247238131E-002  2.675144764231921E-002   1.01108070865744       1.177700230774486E-002  0.986623256441783       0.987210466480437        1.00314059242087        1.00914418074398     
   1.01201105258545       0.987830925651012       0.961921542066995       0.958967548196001       0.955729238088820       0.952188660555952      -3.044802991777180E-003  0.977937330115067       0.985058238372345       0.984474425465118       0.982763473886347        1.00930173859438       0.977644273576184      -1.234373039780290E-002  0.984230024755118       0.967225850571209     
  0.969138964828644       0.970487414951174       0.971657907745763        1.01119147890526        1.01176677718945      -8.868906231065512E-003 -1.801361042383352E-002  0.963519182258991       0.973943791975792       0.971014047189358       6.196680826686046E-003   1.00728741052373      -4.272427377884140E-003 -7.934164802846309E-003   1.01199191342713        1.00429908337315     
   1.00216758885624        1.01297237497050       2.254302876346476E-002  2.941943766199728E-002  2.670562245366519E-002 -9.313510716240318E-003  2.253368854109161E-002  2.432894030433698E-002  2.344305792942002E-002  0.978202764301501       0.976853671941015       3.208404366205220E-003  2.846736561774862E-003  0.999179242102557       9.574571723192550E-003   1.01406538794948     
  0.960977911768287       0.987737472140966       0.993519760294051       0.995368031033506       0.957843893410315      -1.215700804566405E-002 -1.517675722784859E-002  0.964732669480657       0.980363578376531      -1.529303042781804E-002  0.981359465037663       0.984578051965577       0.990959001959382        1.00660184678115       0.973031505542797       0.969198711732053     
  0.966123809101911       0.963827461885498       0.967812317466943        1.01343224046535      -7.435340915781683E-003 -1.097959395384478E-002  1.155378999199465E-002  2.414031135135176E-002  2.010137803230603E-002  1.732711120847024E-002  3.159019271797658E-002  2.915060448018081E-002  2.770186236991587E-002   1.00512729638474       1.437111977149706E-002 -1.694702914489074E-003
 -1.685103434383315E-003   1.01426731047555        1.01657643485964      -1.543194545055693E-002  0.954729993973318       0.951607784385773       3.233646437618627E-002  3.005671683352543E-002  2.780407103021126E-002 -1.252264794792168E-002   1.01394853559488        1.01763917946747       0.975472528645508       0.970013922708876      -5.360262053172655E-003  8.876990153732351E-003
  6.767341735218783E-003 -1.843977215047187E-002   1.01418218833377        1.01527612538072       2.476864758796235E-002  2.135986490202868E-002  0.966039643987187       0.967559104994127       0.969054841868520       0.969239176499423       0.997888257943247        1.00564064106531        1.00837047352495        1.00416674228417      -1.070096416568081E-002 -1.317731724788007E-002
 -1.535081833237524E-002  0.948416908043162      -1.074218206816993E-002 -1.415812178371524E-002  0.975373147837238       0.956219434701917        1.00916067356697        1.01199802292372       0.981269410404743      -1.407455506113844E-002  0.991378746255346      -1.776486451692735E-002 -2.106498783973144E-002  3.524479280645713E-002  3.306594684429539E-002  3.092944414875340E-002
  2.895600834396676E-002  0.972420097644379       0.975225254037069        1.00108673612970       0.999835922233208       2.341851444817792E-002   1.00728723951744       9.827989421320636E-005  5.980916983225284E-003  3.140032766219473E-003  0.966717834544293       0.969104146746013       0.978385574432107       2.452713825791013E-002  1.840026624156310E-002  1.574387397896488E-002
  0.999891147858141        1.00242974615789       0.998972998085499        1.00605031614224        1.01475041757957        1.01495231202427       1.280705126007732E-002   1.00368677736422       3.447759850721394E-002  3.159685965910551E-002  0.953161724024549       0.949897816705256        1.00551617151580       0.946321396110093       3.816924504530231E-002  3.593429600285773E-002
  3.381746351843339E-002   1.00911087167093       0.960975083538823       0.957482128694139       1.888640559373247E-002  0.962606608691342       0.985093206673832       0.977118901035911      -1.678459306061119E-002  0.965612815602556       2.044188841615171E-002  1.741147584906726E-002  0.964315506382914       0.966309544247940      -6.151694940184779E-005 -7.162329649898886E-003
 -1.417091783994848E-002  9.808436386173222E-003  0.963904613023452       0.961694009206171       0.968037804551825      -1.765550449915505E-002  8.568942395818274E-003  0.954680853614671       1.423777373920446E-002  2.216893392082241E-002  2.557778791012308E-002 -1.246604632444172E-002 -1.541308727147125E-002 -1.385959218540404E-002 -1.718185025758825E-002 -1.771584206267779E-002
  0.954695066849048       0.958877581301717      -2.173625118718663E-002  4.119561444072332E-002  3.878913334838760E-002  3.644497993798435E-002  3.465569428688833E-002  6.762159619933510E-003   1.01250594473825        1.01708434200616        1.01903268448898        1.00986326696333        1.01676459128879       0.971800021987559       0.975203316355182       0.960676534424234     
 -2.370740620641638E-003  3.760527273483621E-002  3.484200519236162E-002  3.181880722659641E-002  0.951822246947042       0.948043149906817       2.381043717901767E-002  0.996811176599757       4.233630856795080E-003  3.903636849602509E-003 -1.803386912850053E-002 -1.583049501663344E-002 -1.770172994842536E-002  0.962661431521110       0.958757562950522       0.978223494015300     
  5.863969113790354E-003  3.736011979905061E-003  1.309522161859138E-002  1.124280143548667E-002  0.943482463539768       0.948609772709471      -1.849778783412827E-002 -1.844150371537125E-002 -1.771495781732381E-002 -2.150698281359749E-002  0.964978197903732       4.437859213423898E-002  4.192323045254760E-002  3.898824443651835E-002  1.951290744532179E-002  0.954300428907073     
  0.957727724739917       0.959901410203698       0.950754763829500       0.956460464774586       0.952895102548417       0.949274988109280       7.882755602728447E-003 -1.235500733834254E-002  0.997837112913405       0.974462182600354       0.973247892306996      -2.037175366885977E-002 -2.034506827859981E-002  0.970796762871771       1.609867619890908E-002  1.317922285255279E-003
  0.981508245655745       0.984555241885469       1.657436717704741E-002  2.068066700222016E-002  1.748198232504340E-002  1.411309573347344E-002  4.083736540168419E-002  3.819614897981802E-002  0.978833890402796       0.973615026506765       9.946086899244824E-003  6.634896639724270E-003  0.945154107043061       0.941649008433187       8.375475886369616E-004  1.083325431249160E-002
   1.01433407380608       0.960871087612527       0.956738791242378      -1.932041065762561E-002 -2.156015437526265E-002  0.938044298992047       0.934388105080718       2.309635426633383E-002  0.947211226732464       3.534197642328189E-002  3.216466072052773E-002  2.687681659294324E-002  4.768517932650718E-002  4.529267901191603E-002  4.284215433205827E-002  4.077274264563505E-002
 -5.363215184293151E-004  0.987768791408947       0.990998761614167       0.955131860552048       3.631189817324410E-003 -2.067455646001721E-003   1.01431053014887       2.412970197533481E-002  4.411529700976293E-002  4.151534106105397E-002  3.900027194084269E-002  2.025081491143484E-002  7.039981694320933E-003  1.341554114896989E-002  0.943692748164591       0.940097101014263     
  0.942511435161958       0.987728237965178       0.994198885263591       0.994263610351856       0.945565329691521      -2.332395501028206E-003  0.958744839955471       0.951380903690609       0.947602557906290       0.988772617275328       0.992460969996141       0.938411249512731        1.01086834422706       0.991002412073436       0.934606594964899       0.956764181176381     
  0.954748747178128       0.952597756065463       0.971794239466752       0.945751182244672       0.957581251549035       1.006054113669700E-002  6.453021391639291E-003   1.01662391397837        1.01520968426822        1.01664287212339        1.01887335694374       7.158899539223846E-004 -1.522849596060526E-003  1.047353878486935E-002  4.747112490554402E-002  4.471762283360625E-002
  4.217480370784338E-002  4.069376044601208E-002  0.950403936557271       0.946283064149187       0.930594700546034       2.094097612087593E-002  1.760207219189444E-002  2.661631607043317E-002  0.989713044527995       0.978447777833689       0.982326015338062       0.986061681031331       0.975160298569083       0.975147799310020       5.109664990638909E-002  4.866701252479090E-002
  4.620630044540226E-002  4.383536330733689E-002  4.075909992824273E-002  0.953648059705295       0.956054857734514       1.409121165258261E-002  1.711761576141894E-002  0.961623576807226       0.993386257224548       0.964147251964302       0.960120009875192       0.966702100656206       0.940028145178478       0.998257766228694        1.00125582677595       0.994398177867164     
  0.942299841419178       0.938601680781530        1.00209605262349       0.948768112595567       1.376935320317743E-002   1.01778801123258       2.822818808533470E-002  3.046000971807705E-003  0.936337071315069       0.952718346742412        1.00051869676307        1.00327400233616        1.00639915704548       0.967553310202211       0.944883353435479       0.949663838699312     
  0.945097901964595       6.464183553447588E-003  5.098059570993006E-002  4.808079144467666E-002  4.489419016026323E-002 -9.298818148612472E-003 -1.238637589702759E-002 -1.579508396608904E-002 -5.592133380159708E-003 -7.957437697514417E-003 -3.659764272563871E-003  0.987587831603900       0.979595803051106       0.999594968561328       0.944406422946941       0.936615859292008     
  0.932591474175118       2.465715159395874E-002  2.856946088191764E-002  2.419090812909239E-002  0.997092673655688       0.998434220403238       0.990965270865180        1.01815690657353        1.02023013050027       0.990527067192096       0.996052428136927       0.997173677083031       0.994303622060032       0.984366528108792       0.963193926467546       1.020271898612260E-002
  6.365817708580683E-003  0.934547433244023       0.950802875422971       0.948463759801670       3.181948512779535E-002  3.072441648921656E-002  2.874305680551751E-002  0.942040087570920       0.947394749912317       0.943973396329717       5.463596653261234E-002  5.213050113860700E-002  4.953841055166659E-002  0.983398614436561       0.986953333504023       0.987450809913841     