 VARIABLES = "X" "Y" "RO" "U" "V" "P" "M"
 ZONE T="  0.000000000000000E+000 " N=        9944  E=       19548
 ZONETYPE=FETRIANGLE DATAPACKING=BLOCK
 VARLOCATION=([3-7]=CELLCENTERED)
  -19.9782054645671       -16.7460447536127       -13.5432470514743       -10.4462771124608       -7.39483127129757       -4.39431260318683       -1.43672854734527        1.47853524247441        4.40194279230921        7.38347804238703        10.4122197804982        13.5308676756442        16.7310607632789        20.0189460056259        20.0156650185539        20.0123451374732     
   20.0090067226427        20.0056742799471        20.0022854763303        19.9988742323503        19.9954939648514        19.9920871178897        19.9886881104951        19.9853470049941        19.9820070605281        19.9783478910574        16.7317203104092        13.4557822172063        10.1645634122701        6.87452312340184        3.53259687976399       0.170578499054329     
  -3.16443525887912       -6.48474521199279       -9.79114624567630       -13.0836966857758       -16.3754018560739       -20.0188035791356       -20.0155069002833       -20.0121812769038       -20.0088400757232       -20.0054989473046       -20.0021446450312       -19.9987763328347       -19.9953939522161       -19.9920253568386       -19.9886729196427       -19.9853365630757     
  -19.9819979716434       0.999217073979663       0.997697032181572       0.996181282748087       0.994675667815873       0.993125256169497       0.991513661585385       0.989836012511292       0.988096786713363       0.986295856310059       0.984430875804067       0.982487792102086       0.980475158402613       0.978376726260762       0.976205202159241       0.973956709394763     
  0.971623808288512       0.969203932183492       0.966696250775960       0.964098433298297       0.961410838985157       0.958628468823033       0.955743484798424       0.952744729682123       0.949622751300007       0.946406379965881       0.943073865427982       0.939592514448702       0.936004870444465       0.932298769098070       0.928452657834615       0.924431475643171     
  0.920265976378402       0.915950875547490       0.911472217693403       0.906820973636980       0.901990646449974       0.896974659281223       0.891760351840411       0.886334877946559       0.880690503903706       0.874819388853099       0.868722631471677       0.862392925594174       0.855822242667430       0.849000479581736       0.841918691151272       0.834568313604191     
  0.826942904282922       0.819033969844104       0.810833187895122       0.802332129383727       0.793521916129979       0.784394881312979       0.774942116485095       0.765038986376962       0.754774872905487       0.744138410312213       0.733119010453585       0.721709784834072       0.709898489176271       0.697672630972684       0.685025153371900       0.671944508090575     
  0.658417016490496       0.644435582395053       0.629987016186265       0.615054956627339       0.599628666796280       0.583687897406037       0.567220612779562       0.550211805895900       0.533252467393863       0.516260388721862       0.499203395888474       0.482081713725114       0.464895081833766       0.446993473178382       0.429694024569358       0.412994710475930     
  0.396893374718273       0.381373621957445       0.366350377303263       0.351804955326666       0.337732971080928       0.324142941712446       0.311019578067943       0.298363646891875       0.286175812990365       0.274437560125082       0.263123650320962       0.252186495638838       0.241613318276501       0.231391579565788       0.221513872276492       0.211971962974536     
  0.202754054105504       0.193848797680465       0.185251471148651       0.176945747936198       0.168921855121260       0.161162738783133       0.153661490668441       0.146411649658749       0.139407050844208       0.132641420202101       0.126107810096329       0.119800597316065       0.113714522163468       0.107844230658044       0.102185140652207       9.673283463842303E-002
  9.148308599872550E-002  8.643236907213099E-002  8.157691692290507E-002  7.691293702160347E-002  7.251788024383726E-002  6.828548404398929E-002  6.421735540100267E-002  6.031171399494655E-002  5.656863854382014E-002  5.296623681323052E-002  4.951601225149032E-002  4.621584301451775E-002  4.304812164330815E-002  3.998390207587547E-002  3.702008371227641E-002  3.413405324137711E-002
  3.132615586448761E-002  2.860141282120036E-002  2.596263557766081E-002  2.341375110061816E-002  2.096082100004492E-002  1.861140360172812E-002  1.648248712760107E-002  1.443414101446947E-002  1.248583020573852E-002  1.065621046610529E-002  8.969673189413163E-003  7.362673109877674E-003  5.799873980302609E-003  4.382359079830400E-003  3.101836152807149E-003  1.995911467061827E-003
  1.123575492240925E-003  5.504510924901206E-004  2.882759590573941E-004  2.609753401121850E-004  5.553639180430418E-004  1.204001346545460E-003  2.158507157748985E-003  3.329586844299278E-003  4.646805181720917E-003  6.056379797627742E-003  7.756932133852990E-003  9.543356880842513E-003  1.143154833076860E-002  1.333561654028060E-002  1.528554355299085E-002  1.732943203906652E-002
  1.951796534206939E-002  2.181755955069881E-002  2.423812263670099E-002  2.672019899650155E-002  2.927137480718602E-002  3.193563026319711E-002  3.475248137678740E-002  3.771941260287132E-002  4.082599141422889E-002  4.406026150658689E-002  4.741141905447658E-002  5.086765033778620E-002  5.442558247964933E-002  5.808509517698075E-002  6.183888366378912E-002  6.604647330525842E-002
  7.039891332904802E-002  7.489365695072589E-002  7.952760480553567E-002  8.423225301905482E-002  8.907664416291879E-002  9.408701400739897E-002  9.926130541621168E-002  0.104601634869593       0.110098326006830       0.115770798580492       0.121659973843222       0.127815481768124       0.134250333443108       0.140967743987494       0.147964277227467       0.155241200272195     
  0.162801652105367       0.170646702420348       0.178780351665813       0.187206132122931       0.195928545829812       0.205132387615063       0.214676404801857       0.224566399568364       0.234811497209377       0.245420039652505       0.256399245404035       0.267759557641266       0.279511831132648       0.291663698498500       0.304226100642020       0.317211496100045     
  0.330627543374604       0.344484338933125       0.358795494559037       0.373561541379419       0.388793373669743       0.404497350831033       0.420659293602395       0.437289826836217       0.454331928174029       0.471777639245956       0.489301469898887       0.506696969480379       0.523962424196062       0.541100203417863       0.558113971325654       0.574685805812967     
  0.590791919705887       0.606412399468591       0.621545924558664       0.636194324548600       0.650321459486280       0.663938471510378       0.677060397598396       0.689704914646797       0.701892104457628       0.713673115256315       0.725089568432522       0.736149342006976       0.746860574457293       0.757225318171901       0.767251858399301       0.776948906314552     
  0.786325173332943       0.795302676600511       0.803950441207471       0.812273262967838       0.820277021402697       0.827966364469441       0.835345640123668       0.842422110608634       0.849258341927480       0.855884239718304       0.862302923422063       0.868518210041690       0.874534000495541       0.880354317653622       0.885982483060444       0.891421636692597     
  0.896675253556366       0.901747707791149       0.906646746581396       0.911376929786218       0.915942770372586       0.920155238957020       0.924251867222556       0.928230781250122       0.932094866624048       0.935829201610437       0.939430788047572       0.942905981950239       0.946247042346662       0.949457584022200       0.952552936477395       0.955509048517959     
  0.958332576982136       0.961079860972742       0.963747855414106       0.966334729543206       0.968839239360405       0.971260815893944       0.973600643152206       0.975859774892495       0.978041532828855       0.980149826933208       0.982136586462852       0.984068876132071       0.985932067048918       0.987730911694635       0.989469381043225       0.991148781823947     
  0.992764691852710       0.994318393969748       0.995812410472878       0.997302487681639      -9.830585040671871E-004 -8.088304099652930E-004 -9.028903292601974E-004  0.995453766548593       0.996896842040479       0.995444669521310       0.996698006725131      -2.398376145999631E-003 -3.722640930223869E-004  0.995138376748365       0.995916902898735      -2.004783473591382E-003
  0.994061134657174      -2.310733242163053E-003  0.993596251417094       0.991942750248642      -5.164717825042242E-004  0.992338651192886       0.993320417089317      -2.296231738467529E-003 -3.885891542615399E-003  0.994447189128964       0.994608978339192       0.998333722369299      -1.423789044283767E-003  3.496022864932066E-004  0.990586762500352       0.988814906247308     
  0.987039028105138       0.991430624063209       0.997644806897718       0.992934509966856       0.990729587830638       2.938948609838606E-004 -1.919770169440663E-003 -3.960334939113151E-003  0.992318422332921       0.996896687095884       0.999980568129865       0.997605567155119        1.00065881829335      -3.326936255026407E-003  1.344366170540678E-003  0.996028256113905     
  0.996406996245744       0.998973245054726       0.989003008321982       0.989599409698280       0.987746797492299       0.985831583417381       0.990459775074598       0.992236144480686       1.413143952530008E-003 -5.850656280328272E-004  4.107850209457157E-003   1.00176686497625       0.989989089421194      -5.321777775019463E-003  2.579771219078474E-003  0.990435356068190     
  0.987122467223082       0.988511294744525       2.680267031102676E-003 -3.998674476209001E-003  0.991176393312410       0.999384249043837       0.998849283226213       4.022779393590200E-003  0.988603512437440      -2.593359033429925E-003 -3.744538614395593E-003   1.00267475721318        1.00074475031541       0.994330588964650       0.998468910090571        1.00054438299552     
  0.993221903577751       7.313100877688453E-003 -2.351735461067882E-003  0.999117455672471       0.998265707951406       5.635299964073781E-003  0.985160449178971       0.983177882423799       0.991392189234045       0.997508780620900       0.986412831649737      -5.776650625672914E-003  0.987816690401877       8.962365453518299E-003 -5.503972244450065E-004  6.068949599596986E-004
 -5.346464713578533E-003  0.983734617757320        1.00295348770662       0.986615326329750       0.984406840706499       0.997290874207898       0.995256797842512      -1.544005308000242E-003   1.00354359428734        1.00542278013930        1.00127638200675       0.984270107442517       0.982025132636514        1.00038376654529       0.993698656980892       0.985629016567638     
 -4.781885703274268E-003  5.604919542585809E-003  1.974877968447961E-003  7.350025611002030E-003 -7.124666902861964E-003 -1.538073222090586E-003 -1.883058053557393E-004  6.035335194764718E-004  2.032386263698446E-003  0.994207953867899        1.00212336999668       0.995117937554365       0.987742802562067       0.992029382877920       0.981351533428170       0.979189843601945     
  0.982180962339699       3.712845042152759E-003 -5.538562920564045E-003 -7.402195230354568E-003  0.977035622518107       0.989222946999463       5.720884603767294E-003  0.985465382253939       0.990426054235845       0.993167061052402       0.999891620472439       0.999119881849751       3.554881393331371E-003   1.00487942459095        1.00384828863809       0.996055283622975     
  0.998008577473961       6.122329398802332E-003  0.999506101381535        1.00181017678386       1.071272542650448E-002   1.00243189711539        1.00637082801729        1.00412054419541        1.00671984095730       0.989553470342513       0.992722835343839       0.988546807719354       1.478966470820040E-003  7.506250755671084E-003  0.989501082201038       0.985384050248926     
  0.982722582895812       8.735759424435111E-003 -5.969715623175732E-003 -3.733121611838999E-003 -2.612319059747902E-003 -3.861888981866001E-003  0.990833357077650       0.991948595161636       0.980057382815800       0.977858224071527       0.975472824829183       1.135878164259945E-002  0.991550995955888       0.995496612176952       0.994468650149639       0.996596748121596     
  5.329364959787577E-003  1.331998692696581E-002  0.987156512169071       0.986850487780769        1.00273250389307       0.988773734193817       9.404799475579510E-003  0.986811971522307      -3.987680624539337E-003 -7.923034418342577E-003  0.980851796806410       0.979634257355503       1.267158452427787E-002  0.981421846079725       0.977144328270180      -5.956502727752345E-003
  0.984912713630888      -7.482766026803251E-003  1.072998769177988E-002  0.994083839502963      -2.802648911913359E-003  3.509541985097524E-003  0.974862623558706       1.133580329254802E-002 -3.176502635838679E-004  1.204062661123284E-003  1.532526523819114E-002 -1.045127992992741E-003  7.265317173046366E-003  0.978257221891311      -6.343522218585360E-003 -9.043540804804637E-003
  9.305898411484430E-003   1.00507453168487        1.00796847119807       0.978947560455868       0.976489231576649       0.973365305585693       0.984040358024699       0.981892818406371       0.993193118555072      -1.354022706189112E-003  1.326322203608636E-002 -9.746457896858225E-003  0.976228021991570       0.973862182623846       1.475357373986414E-002  4.931416243366747E-003
  8.483707569021722E-003  1.137421449125836E-002  0.972507147459484       0.970120952824643      -8.125833994232183E-003 -1.028168748722072E-002  3.694232833194481E-004  1.288502704268621E-002  0.983255404182496       0.980429596880562       0.982321900250163       0.979694421432478       0.980394601162122       0.979944986184546        1.00839850489675        1.00512930418222     
 -5.728091831423202E-003  8.742602089441328E-004   1.00165781855998        1.00089701175635       0.984325103220418        1.00375356269096        1.00339957215307       0.971366350561804       1.692828728562840E-002  0.981366865127009       0.982757910776855       1.084876288459025E-002  0.998183577669414       0.989086620087429       0.968789865797759      -3.750770893671294E-003
 -5.197240859500379E-003  0.985069543584649       0.995535620024023       1.509541187243228E-002  0.979017097282610       2.963423092748357E-003  1.745729420564545E-002  1.528209984683409E-002  0.972998502097271        1.00737303724802       0.978107881366478        1.00085130839796       0.999777971208839       0.977865709414616       0.997062291075342       1.317358995921783E-002
 -4.139428985511119E-003 -8.146267757410766E-003 -2.460185170389035E-003 -9.939923720270850E-003 -9.647747060462678E-003  3.254275634967536E-003  0.975131874727119       0.975420034090687       0.972840689853382       1.123791919056734E-002   1.00902101612596       0.970295340039070       0.967821669311856       7.079483116917792E-003  0.971188237527357       0.965326799678627     
  0.963082643021809       8.551842842662473E-003 -7.931139680069381E-003 -1.084136844224976E-002 -2.015303679966555E-003  1.973521812453657E-002  1.753632516800802E-002  0.995936789603805        1.00257733825736      -1.178117451857168E-002  0.982434614565489       0.979249821132056      -5.284892815533267E-004 -7.016687791635303E-003  1.515459419528556E-002   1.00148748110492     
 -1.043105942938711E-002 -1.277997903221910E-002  0.977206381589426       0.976723646057042       9.355113238837635E-003  9.961019217740230E-003  0.987127114475942        1.01049120437051       0.990027018095791       1.541373469140518E-002  2.342521042803744E-003  0.968974455981710       0.966475036703796       0.963832898435865       0.960763852504645       1.737842642869219E-002
  7.939852220721817E-005  0.970134021488054       1.353611407213673E-002  1.922018013236764E-002 -1.216658340804506E-002  0.992926250762363       0.994327121145505       0.997067146641644       7.013164552798146E-003 -6.563021016782145E-003   1.00570085796576        1.00566151436626       0.967292017461549      -5.473980979075230E-003 -4.970839001759144E-003  4.554444717054903E-003
  0.970361201404125       1.237779499398387E-002  0.998699548558129        1.00038875512576       2.211665016423930E-002  1.994855439027602E-002  1.760907559193271E-002 -3.657754644263668E-003  2.162045959699209E-002  0.974574574028173       0.971753266921079      -1.457314277852635E-002  0.987499708435208      -1.035911767548321E-002   1.01012928014686       1.546720746353533E-002
  8.947313271640105E-003  1.978397526376396E-002   1.00429530849909       0.967778475461181       0.965193084037948       0.995700606061616       0.962218326596991       2.451132138145648E-002  5.892490658345903E-003  2.243470949620230E-002   1.00829392294033       6.885928849105378E-003  4.192916235494283E-003  3.867763248029372E-003  1.777420539864012E-002  3.048258442045170E-003
 -8.604233550324261E-003  0.989999012167282       0.985011205336762       0.982993577029852       0.985408669782738       0.987445052339461       0.994629216256319       1.503586119247118E-002 -1.517465867161458E-003  0.965893150287477       2.038367058522179E-002  0.969055350599277       0.990492680877117       0.989510656041545       0.987155899022381       0.984942374346541     
  0.987837368471796       0.988772544271237      -1.224469523966082E-002 -3.222707232434615E-003  0.999889465175416       0.984124730749697       0.967990463331819       0.997570382948363       0.996347485065360       2.686273888570902E-002   1.00777718598325        1.00600827326408        1.00954075037374        1.01123421606856      -1.283459247486217E-002 -1.544642703255071E-002
 -8.228828835055062E-003  2.023665237285640E-002  1.771654803128622E-002  1.495681152997008E-002 -9.837646135654450E-003  0.990319170386075        1.00863930870312       5.895021061312497E-003  0.980131416912417      -6.931456301260005E-003  0.991999243890507       0.992703884447301       0.993856262819040       1.697553655853220E-003  0.971913635361670       1.292711715528287E-002
  1.249731711095344E-002  0.980590031267789       0.970291975273899       0.958895818862089       0.962758305319405       0.959875142528989        1.00380611564671       0.964401610117095       0.967392624601097       0.973278745296852       0.971596990048529       0.975267992068251       0.976180466163363       0.974562807364782       0.972926620126612       0.956892854694349     
  0.953614130474202      -5.037797396688182E-003 -1.260226293123012E-002   1.01173467277767        1.01293799377793       0.982044466613187       0.979473805163697       6.255888603283519E-003  4.587045679913594E-004  1.063844180207532E-003  7.403302819432674E-004 -6.229168788610170E-003   1.01101811151069        1.00671243808633      -1.018186432038714E-002  2.943029023723044E-002
  2.657245140797285E-002 -1.496454707829916E-002  9.601340206319421E-003 -1.529601431222012E-002 -1.823528218256049E-002  0.991654923816168       0.989749040547484      -1.243597935530573E-002 -1.518059484094914E-002  2.644483356034982E-002   1.01063868558348       1.224831406251524E-002  0.986136861650737       0.986723665726719        1.00271018766016        1.00870524564836     
   1.01157235187754       0.987343085733571       0.961572004628527       0.958626056095748       0.955396493523779       0.951865581683141      -2.679767916348349E-003  0.977550828685373       0.984569926211510       0.983986134750452       0.982273049724736        1.00883583044070       0.977146964154795      -1.208175619903847E-002  0.983739604225908       0.966714743624193     
  0.968629948954065       0.969979488411815       0.971150868866288        1.01073280347115        1.01130319899059      -8.558800971090137E-003 -1.789102175892481E-002  0.963165755635418       0.973563895370174       0.970641041995181       6.631268790703485E-003   1.00685160866886      -4.333236245241597E-003 -7.938800699629940E-003   1.01152631293620        1.00386363187079     
   1.00174178180155        1.01252716374101       2.308309707260489E-002  2.908980236542601E-002  2.639834118137110E-002 -9.330106852142991E-003  2.225710847342985E-002  2.403974720449853E-002  2.315944071744305E-002  0.977817845325218       0.976353903848153       3.628690474828845E-003  2.715120829617433E-003  0.998756596328193       9.386740429916152E-003   1.01360627305502     
  0.960631140317887       0.987335134627785       0.993038451561421       0.994886110525320       0.957316608696180      -1.186263132174509E-002 -1.509737856749616E-002  0.964218229658981       0.979868598699434      -1.505172881284023E-002  0.980969665358381       0.984183982155850       0.990554272077622        1.00613367989670       0.972654817447845       0.968829455325618     
  0.965763324257584       0.963474320033584       0.967447565107747        1.01298167679597      -7.480128340068513E-003 -1.096960111857800E-002  1.202857408919879E-002  2.469042094463610E-002  2.062629621502192E-002  1.783675563933118E-002  3.219038173977080E-002  2.973667318711650E-002  2.827741390757162E-002   1.00469861365779       1.486546479221661E-002 -1.769458705973095E-003
 -1.777573071313845E-003   1.01381952221180        1.01612702901582      -1.517203837516676E-002  0.954197863890294       0.951070902204972       3.198482841489371E-002  2.972078212948997E-002  2.748369106267825E-002 -1.252470158224104E-002   1.01348696747231        1.01717955169342       0.975090616948741       0.969645039926066      -5.428966186202507E-003  9.332528966367510E-003
  6.594049027690152E-003 -1.826085853435446E-002   1.01374058857953        1.01483770559958       2.447685243977902E-002  2.108895537587765E-002  0.965526763943730       0.967047852862825       0.968544929954711       0.968728609695199       0.997470881751013        1.00520814991029        1.00793833940318        1.00374272906103      -1.038370836485725E-002 -1.290029039425486E-002
 -1.507131344124049E-002  0.947874927356027      -1.076929913890545E-002 -1.417209618227287E-002  0.974992866479220       0.955689881201536        1.00869279067770        1.01153069365180       0.980773282039151      -1.405162058540434E-002  0.990893504372065      -1.767545083867151E-002 -2.095981793126867E-002  3.487387623770700E-002  3.270992458554371E-002  3.058684193963607E-002
  2.862523676703575E-002  0.972047071763605       0.974847588990860        1.00066569709341       0.999420224111449       2.396350218359262E-002   1.00686103204732       5.037022904140659E-004  6.422827149270977E-003  3.569877242268179E-003  0.966358227247636       0.968739924293532       0.978002932467455       2.423335637161440E-002  1.815166623976410E-002  1.551074169275090E-002
  0.999415665902561        1.00195630335410       0.998494533926999        1.00562772276248        1.01428723823429        1.01448686588723       1.259176484359878E-002   1.00321583809600       3.509485212623985E-002  3.219646994163573E-002  0.952627903940013       0.949359060534359        1.00504431715835       0.945777195952227       3.778019890185884E-002  3.556102232797455E-002
  3.345787023263274E-002   1.00868744898645       0.960453882467686       0.956954901028989       1.862979469087610E-002  0.962088349689329       0.984600878769251       0.976617473006725      -1.671941025957539E-002  0.965257482195621       2.097118322796093E-002  1.792567302863493E-002  0.963799696693958       0.965796050979608       3.526825336255232E-004 -6.827119600895161E-003
 -1.386682341447336E-002  9.610535246406916E-003  0.963552585150544       0.961347722890005       0.967678735643075      -1.750243156155895E-002  9.028297380449059E-003  0.954149451459353       1.473710271335588E-002  2.188869905235500E-002  2.527206585525153E-002 -1.243071869462924E-002 -1.536767749442634E-002 -1.379981830445658E-002 -1.714752337132695E-002 -1.747305212293281E-002
  0.954164044192868       0.958353312418879      -2.154652682379008E-002  4.078765350497687E-002  3.839926387966189E-002  3.606996318599681E-002  3.429172654259607E-002  6.579409419877567E-003   1.01207153937286        1.01664349797006        1.01859433906663        1.00942693639002        1.01633040272737       0.971431481502601       0.974828957307091       0.960155028001158     
 -1.985881860858750E-003  3.823985359845519E-002  3.545946318522438E-002  3.241753288538611E-002  0.951286961539089       0.947502306627296       2.436165538061306E-002  0.996398602158032       4.078135495089869E-003  3.742328920430478E-003 -1.798266388178925E-002 -1.581994325352601E-002 -1.770342607263790E-002  0.962142356974763       0.958232527329175       0.977728763464627     
  6.311557192890691E-003  4.178308149880327E-003  1.287129119794527E-002  1.172162323181873E-002  0.942933978864528       0.948297687784141      -1.823962257483175E-002 -1.815524544328955E-002 -1.748430441845430E-002 -2.128206397948902E-002  0.964461310000275       4.395111674589382E-002  4.151254185753234E-002  3.859650156309470E-002  1.924766230807376E-002  0.953971506937622     
  0.957389622885419       0.959558224394845       0.950435894813518       0.956126083369545       0.952570365376361       0.948960245485554       8.345674118454525E-003 -1.238835711931439E-002  0.997428507627820       0.973958121519077       0.972742076597653      -2.032628984612861E-002 -2.027417010848064E-002  0.970434180252538       1.585790289051840E-002  1.178503505369264E-003
  0.981121845247139       0.984165395027952       1.632502778712328E-002  2.121531535030415E-002  1.800169918265562E-002  1.461858263548716E-002  4.148861788246473E-002  3.883180184310722E-002  0.978452865610749       0.973249272219021       9.738520802638392E-003  6.442742246861897E-003  0.944851575740987       0.941355987974246       6.890088927222619E-004  1.131763251191171E-002
   1.01386591106989       0.960348348998814       0.956210173189641      -1.929843141947687E-002 -2.155173315954354E-002  0.937761230870012       0.934115257659327       2.280598597091073E-002  0.946902406410986       3.596006800792571E-002  3.276308529046240E-002  2.656009472240098E-002  4.723920928944863E-002  4.486301403459069E-002  4.242761446997134E-002  4.037021949218845E-002
 -1.154600304571474E-004  0.987371463372612       0.990598856079748       0.954801620125168       3.462347254031146E-003 -2.185691751193403E-003   1.01387999510738       2.468495827361676E-002  4.478185386244759E-002  4.216737201402262E-002  3.963861816773639E-002  1.997628906243878E-002  7.508589978547521E-003  1.318223085210796E-002  0.943393183511309       0.939807000785981     
  0.941960722897070       0.987335445995178       0.993791886912989       0.993861793869496       0.945019260430643      -2.468296569327810E-003  0.958404921179964       0.951060426072500       0.947292067159491       0.988283195683258       0.991974235361818       0.937853960548290        1.01043972817195       0.990607080856071       0.934043719645567       0.956236517179362     
  0.954217594344110       0.952063404875202       0.971285746968674       0.945445812971693       0.957245938047589       9.842677343349602E-003  6.249847188863730E-003   1.01617914487647        1.01475656392553        1.01618696410776        1.01842106217745       5.582108162077333E-004 -1.678527263469713E-003  1.096466393241308E-002  4.815256606197014E-002  4.538300020169665E-002
  4.282807863892733E-002  4.133745211857994E-002  0.949866544039798       0.945739976353618       0.930025717128100       2.148071357216745E-002  1.812793441916225E-002  2.718525634824041E-002  0.989222097396791       0.977946722189461       0.981829108664035       0.985568016299356       0.974655753225120       0.974642119395109       5.063254286073434E-002  4.821996880037415E-002
  4.577451003809978E-002  4.341700163753801E-002  4.036030022676503E-002  0.953322265442885       0.955724306000838       1.460357585787436E-002  1.685881126235490E-002  0.961276484809298       0.992897889118806       0.963797296399003       0.959779971116914       0.966348861117351       0.939473644502347       0.997776788132964        1.00077689837895       0.994000561464450     
  0.942002733133285       0.938314510587439        1.00168251663577       0.948228576719662       1.352584867703713E-002   1.01735855378678       2.880514905679393E-002  2.869269010734762E-003  0.936057207465176       0.952184257464101        1.00011219893455        1.00285429333135        1.00598073005992       0.967038692294136       0.944338848383542       0.949347290442819     
  0.944792733529764       6.939967171722989E-003  5.167729395599099E-002  4.876092661712737E-002  4.555815496415917E-002 -8.961173871832623E-003 -1.206358591082553E-002 -1.547872359030460E-002 -5.229541549945626E-003 -7.596911372439635E-003 -3.271094010160186E-003  0.987199622164530       0.979094795638844       0.999112920524899       0.944103845266494       0.936056936061852     
  0.932026651680296       2.521617582932491E-002  2.914833992466187E-002  2.389041235450579E-002  0.996689922371478       0.998034552028361       0.990574463463361        1.01769429637448        1.01978849298095       0.990034639878992       0.995568355264996       0.996687685711322       0.993813421033609       0.983980852870290       0.962673307468626       9.973790438431588E-003
  6.150734239630806E-003  0.934271092330380       0.950265974586939       0.947924110810808       3.147211921524584E-002  3.038293793044923E-002  2.841197065479950E-002  0.941490542689549       0.946853738422891       0.943427539492308       5.415359798561113E-002  5.166566893336298E-002  4.909092083232303E-002  0.982901165263261       0.986458465461094       0.986954752341153     