 VARIABLES = "X" "Y"
 ZONE T="  0.000000000000000E+000 " N=        9944  E=       19548
 ZONETYPE=FETRIANGLE DATAPACKING=BLOCK
  -19.9782054645671       -16.7460447536127       -13.5432470514743       -10.4462771124608       -7.39483127129757       -4.39431260318683       -1.43672854734527        1.47853524247441        4.40194279230921        7.38347804238703        10.4122197804982        13.5308676756442        16.7310607632789        20.0189460056259        20.0156650185539        20.0123451374732     
   20.0090067226427        20.0056742799471        20.0022854763303        19.9988742323503        19.9954939648514        19.9920871178897        19.9886881104951        19.9853470049941        19.9820070605281        19.9783478910574        16.7317203104092        13.4557822172063        10.1645634122701        6.87452312340184        3.53259687976399       0.170578499054329     
  -3.16443525887912       -6.48474521199279       -9.79114624567630       -13.0836966857758       -16.3754018560739       -20.0188035791356       -20.0155069002833       -20.0121812769038       -20.0088400757232       -20.0054989473046       -20.0021446450312       -19.9987763328347       -19.9953939522161       -19.9920253568386       -19.9886729196427       -19.9853365630757     
  -19.9819979716434       0.999709616510355       0.998192442222132       0.996679544932593       0.995176755912268       0.993629246821799       0.992020661364823       0.990346136151571       0.988610139642870       0.986812543231837       0.984951004751455       0.983011495860330       0.981002552750708       0.978907955389395       0.976740385579218       0.974495972260035     
  0.972167287679621       0.969751768098462       0.967248582899562       0.964655403600091       0.961972586825196       0.959195140372589       0.956315237812090       0.953321738976414       0.950205205324768       0.946994414135595       0.943667650163580       0.940192273010239       0.936610749560882       0.932910933090617       0.929071303817703       0.925056855054394     
  0.920898284182514       0.916590310818015       0.912118997417002       0.907475323918400       0.902652797836013       0.897644846388704       0.892438822453409       0.887021892417381       0.881386326259432       0.875524286258939       0.869436859876093       0.863116742184781       0.856555906190996       0.849744252556572       0.842672837145674       0.835333095673529     
  0.827718580910769       0.819820796861625       0.811631417069013       0.803142007315995       0.794343683511941       0.785228769836405       0.775788348940280       0.765897921988010       0.755646727307051       0.745023385786765       0.734017292269494       0.722621533982359       0.710823845604992       0.698611710010499       0.685978035521955       0.672911239516805     
  0.659397605780107       0.645429987743816       0.630995144768812       0.616076659199743       0.600663722964310       0.584736012761249       0.568281398812428       0.551284767636069       0.534336605033673       0.517354711285278       0.500306871276521       0.483193240386504       0.466013482371435       0.448117672269680       0.430822428405567       0.414125789484911     
  0.398025668129269       0.382505741716931       0.367480997846140       0.352932803652048       0.338856829089524       0.325261654508708       0.312132049274308       0.299468847165529       0.287272784668900       0.275525405971368       0.264201523819301       0.253253571083403       0.242668813956903       0.232434755711946       0.222544035609970       0.212988465096537     
  0.203756284863151       0.194836183180831       0.186223483243306       0.177901881622342       0.169861636666912       0.162085706872649       0.154567213731653       0.147299725425933       0.140277105689416       0.133493107456618       0.126940806519920       0.120614605113347       0.114509268772880       0.108619467180628       0.102940643214675       9.746840405673558E-002
  9.219854764045768E-002  8.712757494615322E-002  8.225174436125003E-002  7.756728811414630E-002  7.315206260741933E-002  6.889937807264532E-002  6.481088074045346E-002  6.088481497149028E-002  5.712129531086779E-002  5.349833999649323E-002  5.002754664003067E-002  4.670681527183369E-002  4.351845781328753E-002  4.043335018798953E-002  3.744836620423768E-002  3.454071097676082E-002
  3.171069491716508E-002  2.896333647124372E-002  2.630142347530116E-002  2.372886379655951E-002  2.125171627745718E-002  1.887755141786930E-002  1.672465064683461E-002  1.465154393138144E-002  1.267781219670493E-002  1.082225560517861E-002  9.109559185799835E-003  7.475009425977525E-003  5.882072312905357E-003  4.433102424569563E-003  3.118892737134156E-003  1.976809851112312E-003
  1.066239454092046E-003  4.548024806841513E-004  1.581989910898871E-004  9.679449654820260E-005  3.481840277956450E-004  9.551956966585501E-004  1.870531765931241E-003  3.006040667098916E-003  4.291176502772728E-003  5.671833582255221E-003  7.342306392964855E-003  9.101047212437626E-003  1.096313647766360E-002  1.284338435432561E-002  1.477097273164872E-002  1.679325966287420E-002
  1.896036515047722E-002  2.123903454956262E-002  2.363906438093916E-002  2.610144827421228E-002  2.863362931636288E-002  3.127922752078312E-002  3.407750724814803E-002  3.702601380291458E-002  4.011441199158956E-002  4.333083366840314E-002  4.666454096234747E-002  5.010377849278675E-002  5.364518206849585E-002  5.728862473273716E-002  6.102682582610312E-002  6.521793231581666E-002
  6.955433016161772E-002  7.403349530715009E-002  7.865235054210024E-002  8.334260549929215E-002  8.817308358373903E-002  9.316996479561020E-002  9.833122279055907E-002  0.103658992902250       0.109143642942888       0.114804572996840       0.120682656726320       0.126827484816137       0.133252111281977       0.139959812323772       0.146947220058136       0.154215660091008     
  0.161768326198640       0.169606343740843       0.177733764868600       0.186154173467934       0.194872122115422       0.204072397013593       0.213613891005201       0.223502466976441       0.233747310797723       0.244356826039574       0.255338293200895       0.266702218627358       0.278459521678873       0.290617898846988       0.303188356794715       0.316183421813198     
  0.329610817025495       0.343480704970077       0.357806767150800       0.372589589904908       0.387840131866599       0.403564810339255       0.419749472252771       0.436404797836759       0.453473710793145       0.470948260403734       0.488502398380577       0.505929239736368       0.523226975292786       0.540397894989360       0.557445594393239       0.574051421946418     
  0.590191427775177       0.605845550723839       0.621012370623434       0.635693633622281       0.649853037303437       0.663501673760204       0.676654547423142       0.689329316721776       0.701546057957177       0.713355997131511       0.724800818933805       0.735888386697747       0.746626827832326       0.757018170636006       0.767070694303151       0.776793107294942     
  0.786194120367685       0.795195520147114       0.803866491572333       0.812211822860813       0.820237390134768       0.827947835792289       0.835347502456544       0.842443656145173       0.849299023039925       0.855943581482048       0.862380449827955       0.868613446446483       0.874646474344244       0.880483559297834       0.886128024176755       0.891583010149248     
  0.896851994768635       0.901939357750383       0.906852862254197       0.911597075218613       0.916176516941155       0.920401585634230       0.924510515386654       0.928501422938796       0.932377198943889       0.936122872766461       0.939735433178831       0.943221251749966       0.946572560108044       0.949792980434604       0.952897886081797       0.955863148289536     
  0.958695441042011       0.961451275776167       0.964127596124351       0.966722563772970       0.969234928996558       0.971664119227106       0.974011320435851       0.976277588011242       0.978466252560934       0.980581234952870       0.982574310077516       0.984512754212244       0.986381890783693       0.988186486291312       0.989930523364805       0.991615311952351     
  0.993236414719337       0.994795117670108       0.996293950322786       0.997788838255842      -1.129112352844038E-003 -9.221786531084958E-004 -1.083540600168536E-003  0.995954340128979       0.997395502308150       0.995946865870274       0.997178948379592      -2.558588828797457E-003 -4.510664953232469E-004  0.995615195048930       0.996393270789311      -2.102982179311841E-003
  0.994564232945523      -2.441032424492733E-003  0.994069022287064       0.992410435362155      -7.379694034838548E-004  0.992845026059986       0.993826407788725      -2.489432130970958E-003 -4.031777452318804E-003  0.994920643517305       0.995079704847877       0.998818188644453      -1.487579246446326E-003  3.071613646985430E-004  0.991096226235349       0.989327421946669     
  0.987554634614189       0.991939617801623       0.998124827802257       0.993403667797722       0.991191971923962       2.933819641038634E-005 -2.160770955086748E-003 -4.131175070872197E-003  0.992827152466201       0.997371975873066        1.00046692290161       0.998105047373100        1.00114929718254      -3.410591675615394E-003  1.338345697118668E-003  0.996497439183222     
  0.996910013246016       0.999468602421134       0.989461785091043       0.990111191050300       0.988261394131402       0.986349122603638       0.990923212710541       0.992699585418075       1.112962999502073E-003 -8.641701508984875E-004  3.743527830054259E-003   1.00225304172213       0.990445903268764      -5.478791487350723E-003  2.609088626719642E-003  0.990946701070382     
  0.987575037795769       0.988966337944333       2.347111178413179E-003 -4.202542499897153E-003  0.991687550299963       0.999882040313650       0.999328071074669       4.086146158177554E-003  0.989117202665360      -2.642578457225618E-003 -3.861179056200668E-003   1.00316373005515        1.00122667263887       0.994836501522843       0.998969312555621        1.00104251805141     
  0.993730444251404       7.438721208927347E-003 -2.617700341614555E-003  0.999599845586724       0.998739243112001       5.731526614077886E-003  0.985606895976162       0.983618143689294       0.991849879222241       0.997976428817072       0.986861871915161      -5.956089168410626E-003  0.988267884182360       9.111415074904698E-003 -5.786580814896393E-004  6.141756759642204E-004
 -5.448944838667004E-003  0.984255787348780        1.00343629410509       0.987132004747333       0.984927351766346       0.997794744261868       0.995762886275030      -1.558377830834493E-003   1.00402953405767        1.00590633940393        1.00177064216640       0.984713044752290       0.982461709481865        1.00086075383395       0.994162190148766       0.986074637374631     
 -4.850580861818296E-003  5.717179393543945E-003  1.631828092405804E-003  7.486245814709064E-003 -7.211819048567397E-003 -1.827367135497822E-003 -1.678147580826612E-004  2.926749984497962E-004  2.074842890315778E-003  0.994716362092775        1.00260272538330       0.995580929118496       0.988258299757029       0.992540422587170       0.981877570095470       0.979719535037992     
  0.982705921939400       3.790412256958467E-003 -5.673261377374351E-003 -7.557908566350720E-003  0.977569145584208       0.989675418364576       5.326627016135848E-003  0.985983408749487       0.990879007483704       0.993678165428704        1.00036314568413       0.999585783181353       3.180697510793542E-003   1.00536723790566        1.00434017573074       0.996561720151856     
  0.998513732832010       6.255922151024780E-003   1.00000725009241        1.00230878990038       1.088782355777204E-002   1.00290689227833        1.00686111835954        1.00459971697586        1.00719855719231       0.990067508690596       0.993180716032720       0.988996447700781       1.534810568877688E-003  7.082693404792183E-003  0.990014114800300       0.985903613774904     
  0.983247168320012       8.893409652180183E-003 -6.182304155378629E-003 -4.001976154651933E-003 -2.613040259205823E-003 -3.896469079274433E-003  0.991347349672188       0.992462610757853       0.980585537270281       0.978389834643820       0.976008543033032       1.088266856005951E-002  0.992003865414918       0.996004999920695       0.994979867706842       0.997058611175681     
  4.924954008810435E-003  1.282207454590154E-002  0.987604580875281       0.987295952468278        1.00322841819812       0.989290182286958       8.953706649683842E-003  0.987330450574780      -4.229633596139434E-003 -8.112386979453642E-003  0.981378994414453       0.980063401891491       1.287360110916544E-002  0.981857287511668       0.977565398245340      -6.200158161836080E-003
  0.985354729092749      -7.603568826962186E-003  1.091674453994674E-002  0.994541246414694      -3.102277683571758E-003  3.602159831753034E-003  0.975276922356308       1.085194553480733E-002 -6.389863455784885E-004  8.507146502935178E-004  1.480676269453979E-002 -1.011707346193144E-003  6.831795147335374E-003  0.978680498871935      -6.396371236299861E-003 -9.113083406264461E-003
  8.845180101901898E-003   1.00556890123988        1.00846108975994       0.979477223220723       0.977022838091710       0.973905729808520       0.984563271662489       0.982419006903171       0.993707300918340      -1.685923850783004E-003  1.276111075407478E-002 -9.886195004374375E-003  0.976645926382153       0.974273010520328       1.498091043687541E-002  4.516542649317419E-003
  8.654104763688544E-003  1.088421474525800E-002  0.972914130782425       0.970520497958001      -8.345482179060735E-003 -1.047925806561090E-002  5.865858952433566E-006  1.309848118900759E-002  0.983694350549796       0.980859046744240       0.982755524276343       0.980119793723895       0.980922534882550       0.980474168114583        1.00888078409240        1.00560431029356     
 -6.002040661163732E-003  9.438424762121908E-004   1.00212726871892        1.00136097348198       0.984761854603360        1.00425047652797        1.00389863688322       0.971769725455367       1.717951472292874E-002  0.981795467705604       0.983188890493562       1.104867158519387E-002  0.998643946198018       0.989535301604750       0.969185996039957      -3.738031908480119E-003
 -5.217097864992109E-003  0.985591302984322       0.995991963530106       1.533245489230978E-002  0.979439737662142       2.578893878193399E-003  1.691748038034934E-002  1.475959347571450E-002  0.973539194545261        1.00785947638335       0.978639133981028        1.00135304544208        1.00028335674184       0.978287098673359       0.997570729825908       1.339834113325206E-002
 -4.449562496148560E-003 -8.393866564992516E-003 -2.801852104376390E-003 -1.010780727099325E-002 -9.754365077845455E-003  3.364141518228046E-003  0.975668534040017       0.975834655762228       0.973247857193813       1.145136570772835E-002   1.00950977508966       0.970841218582858       0.968371691332218       6.635519155960611E-003  0.971732795382987       0.965881124404404     
  0.963640440813551       8.736176407598177E-003 -7.967690088530354E-003 -1.089220772952930E-002 -1.968953644603218E-003  1.917399885413896E-002  1.699224767821523E-002  0.996448111426306        1.00307986021827      -1.193409459784447E-002  0.982960379612532       0.979781377523270      -9.019077790823463E-004 -7.305687379530738E-003  1.462749151210986E-002   1.00199331502189     
 -1.065759942365216E-002 -1.298591571230125E-002  0.977625120420155       0.977138649967621       8.883796402817671E-003  9.476214270620576E-003  0.987569295583153        1.01098154473175       0.990473824414892       1.565848985492187E-002  1.947584849951248E-003  0.969522319354969       0.967026809805500       0.964388810709286       0.961325373426081       1.763813060302494E-002
  1.660546608797089E-004  0.970533564940418       1.376938444419334E-002  1.949525961602978E-002 -1.229416929562277E-002  0.993378320440802       0.994778229917827       0.997522187130602       6.558941773826881E-003 -6.568419524557722E-003   1.00619739185682        1.00616126275723       0.967683253633597      -5.793912320927569E-003 -4.944496093820287E-003  4.129033181378446E-003
  0.970907136065101       1.260747856359079E-002  0.999208084166665        1.00089756604525       2.153476899200455E-002  1.938319804357263E-002  1.706066655967496E-002 -4.008283260756543E-003  2.191945691138791E-002  0.974985478134732       0.972156488978050      -1.472434453727943E-002  0.987938747000793      -1.061094240933400E-002   1.01061443120278       1.571837316779419E-002
  9.144973788380660E-003  2.006758211273165E-002   1.00479845972745       0.968328098105198       0.965746149638809       0.996150315073182       0.962776675038519       2.391103669204000E-002  6.042585141116811E-003  2.184917276891828E-002   1.00879005205630       6.421663431618785E-003  3.756628759336191E-003  3.420325474871343E-003  1.804189452958075E-002  3.175233017206283E-003
 -8.905192667923414E-003  0.990441933177206       0.985446335853327       0.983423377716228       0.985842669567388       0.987881125539040       0.995143550732700       1.450446963881191E-002 -1.901049892778253E-003  0.966280659046700       2.067560427423976E-002  0.969603252172569       0.991009733217556       0.990027340729235       0.987675094257215       0.985465597764443     
  0.988357243300790       0.989293049259868      -1.233144059097384E-002 -3.163211760081737E-003   1.00034815429217       0.984552982690010       0.968384292929140       0.998081761221164       0.996861917695377       2.624593850488548E-002   1.00825205778342        1.00647980105136        1.01001912520994        1.01171571425587      -1.306819206742086E-002 -1.566178854262642E-002
 -8.495427916406546E-003  1.966736961811694E-002  1.716432382430861E-002  1.442168394973554E-002 -1.011097844622537E-002  0.990758231425284        1.00913821961991       6.061582334071515E-003  0.980555306932852      -7.260478778843540E-003  0.992447218356436       0.993149946362645       0.994298793156286       1.291820900035698E-003  0.972457096660839       1.242152090241118E-002
  1.198727616936068E-002  0.981010964444549       0.970837958545637       0.959461043045518       0.963134983010966       0.960243196058223        1.00427790520998       0.964783281875093       0.967942501824044       0.973819846053013       0.972141343583577       0.975804374306231       0.976716411618229       0.975102384834895       0.973469981524140       0.957251854417989     
  0.953963098022768      -5.396187019779914E-003 -1.285895743521536E-002   1.01222242325272        1.01342820354761       0.982571903393732       0.980005977309236       6.438216639822215E-003  5.658852279832391E-004  6.455273330977398E-004  3.091556048746300E-004 -6.189471902023731E-003   1.01151415040552        1.00721370823529      -1.049334679649070E-002  2.879281596040117E-002
  2.595757754570340E-002 -1.507468123578497E-002  9.110116611618105E-003 -1.553785666629172E-002 -1.846257104830625E-002  0.992172366170951       0.990270139148551      -1.261182740995024E-002 -1.536518102923063E-002  2.678449556362759E-002   1.01111333819769       1.173431594861587E-002  0.986660321490996       0.987247580855958        1.00317211176213        1.00917651233352     
   1.01204337314471       0.987868160739564       0.961945524398918       0.958990786128452       0.955751666765896       0.952210195118174      -3.077046833871396E-003  0.977964745369038       0.985095507291119       0.984511688498927       0.982800963569600        1.00933672799695       0.977682481891134      -1.236586575691392E-002  0.984267522629709       0.967265507566328     
  0.969178410727102       0.970526751021856       0.971697154811890        1.01122573125472        1.01180153674326      -8.895763270589222E-003 -1.802214370405480E-002  0.963543526380490       0.973970590918938       0.971040207791925       6.157606505773705E-003   1.00731944348409      -4.263136785620321E-003 -7.930310957955869E-003   1.01202688584008        1.00433107279797     
   1.00219868126220        1.01300531498132       2.249356362806376E-002  2.945468730895142E-002  2.673871814464133E-002 -9.308513174937357E-003  2.256384865161581E-002  2.436032019775768E-002  2.347388269482404E-002  0.978230037474748       0.976892146692483       3.170725409419869E-003  2.862883199391676E-003  0.999210034364551       9.596145086861589E-003   1.01409969913499     
  0.961001640610676       0.987766368517684       0.993556312013182       0.995404663462906       0.957885260886679      -1.218233192244175E-002 -1.518107771366323E-002  0.964772682619285       0.980401552889266      -1.531315022631309E-002  0.981387194595737       0.984606182189197       0.990988126678124        1.00663705951833       0.973058010110785       0.969224522136432     
  0.966148807120604       0.963851783538170       0.967837713906020        1.01346569774164      -7.427614087088308E-003 -1.097717273806726E-002  1.151074292459390E-002  2.408986306633465E-002  2.005339713417970E-002  1.728062687492032E-002  3.153476636540040E-002  2.909657229172494E-002  2.764884791991219E-002   1.00515866259721       1.432613483414043E-002 -1.684051578214735E-003
 -1.672754001849094E-003   1.01430050235153        1.01660979332691      -1.545389237779539E-002  0.954771876829465       0.951650172748817       3.237381575234026E-002  3.009255221244540E-002  2.783840270176355E-002 -1.251907311164755E-002   1.01398309710898        1.01767356513057       0.975499516855193       0.970039704756005      -5.350221371639758E-003  8.835846550434954E-003
  6.787498222005675E-003 -1.845379785780432E-002   1.01421479124367        1.01530843350457       2.480026735816805E-002  2.138945587804878E-002  0.966079498878102       0.967598792961373       0.969094391643334       0.969278802042846       0.997918562812565        1.00567236112999        1.00840216899670        1.00419767544548      -1.072853829570055E-002 -1.320093737042997E-002
 -1.537469134354948E-002  0.948459838814123      -1.073618129636161E-002 -1.415340611857649E-002  0.975399987857862       0.956261047917640        1.00919587282919        1.01203317899155       0.981307518365303      -1.407340226801979E-002  0.991415716324214      -1.777017031544296E-002 -2.107184475088441E-002  3.528398460684274E-002  3.310370163862052E-002  3.096590251590460E-002
  2.899132188991040E-002  0.972446266403570       0.975251856130237        1.00111738673745       0.999866078019440       2.336854069578428E-002   1.00731838317064       6.205091664202142E-005  5.941104812126725E-003  3.101398141909747E-003  0.966742758192293       0.969129500775890       0.978412642055430       2.455892230444878E-002  1.842771641174396E-002  1.576982378555392E-002
  0.999927104619124        1.00246549519476       0.999009273048343        1.00608112323899        1.01478515058555        1.01498728388536       1.283126754547142E-002   1.00372226577763       3.442046696705545E-002  3.154147129476674E-002  0.953203790819701       0.949940408463444        1.00555176776411       0.946364566693409       3.821016583210478E-002  3.597369756095076E-002
  3.385554639300193E-002   1.00914176337669       0.961015814645935       0.957523499181139       1.891460893710156E-002  0.962647033818804       0.985130920482590       0.977157562360715      -1.678754288170855E-002  0.965637346664840       2.039345277326955E-002  1.736452078673234E-002  0.964355677541509       0.966349474674565      -9.862607001977946E-005 -7.191656526770205E-003
 -1.419720897504939E-002  9.830962877089414E-003  0.963928835311239       0.961717702206960       0.968062685501901      -1.766700438392856E-002  8.527406512736155E-003  0.954722666583596       1.419227657278152E-002  2.219940334217198E-002  2.561070064035478E-002 -1.246608338863431E-002 -1.541411604431253E-002 -1.386200499236955E-002 -1.718181385974853E-002 -1.773611657548298E-002
  0.954736845488344       0.958918643824276      -2.175135508294550E-002  4.123833720299051E-002  3.883011693959068E-002  3.648453676830583E-002  3.469418060551938E-002  6.783212785227423E-003   1.01253786644643        1.01711688519622        1.01906500004701        1.00989535794605        1.01679650859418       0.971825779636961       0.975229618405917       0.960717310261301     
 -2.404945390105231E-003  3.754640738283619E-002  3.478483155583320E-002  3.176348223807429E-002  0.951864473937219       0.948085969160221       2.375982047372895E-002  0.996841037754341       4.252071012986746E-003  3.922625474325857E-003 -1.803546949728242E-002 -1.582815447742062E-002 -1.769821704753237E-002  0.962701955140628       0.958798720031112       0.978261419668050     
  5.823586012104140E-003  3.696134557818045E-003  1.312025166604860E-002  1.119933838994981E-002  0.943526096775890       0.948630290401009      -1.851957741446989E-002 -1.846606179467080E-002 -1.773404181163415E-002 -2.152552729491092E-002  0.965018495678669       4.442317162743408E-002  4.196619581895384E-002  3.902938763537147E-002  1.954192225441799E-002  0.954322506845925     
  0.957750651769985       0.959924810573708       0.950775911996826       0.956483050616638       0.952916796381739       0.949295757549454       7.840853147483057E-003 -1.234841688665326E-002  0.997866611753097       0.974501115774827       0.973287016597357      -2.037280857185607E-002 -2.034858919953193E-002  0.970821973914697       1.612534197463519E-002  1.334801233898296E-003
  0.981535665465294       0.984582985873586       1.660183788064690E-002  2.063167944279727E-002  1.743445990996552E-002  1.406696836882655E-002  4.077682954981018E-002  3.813715501120317E-002  0.978860812545976       0.973640536880757       9.969527376521127E-003  6.656839816810452E-003  0.945173741398156       0.941667763644733       8.552913016795581E-004  1.078922305395165E-002
   1.01436933067473       0.960912007180192       0.956780335511950      -1.931919020838083E-002 -2.155763545448832E-002  0.938062134409704       0.934404996006148       2.312777869938395E-002  0.947231445638576       3.528471785528766E-002  3.210934536392018E-002  2.691076808202394E-002  4.773151633891819E-002  4.533744865378621E-002  4.288546843844732E-002  4.081489856140028E-002
 -5.741040391148473E-004  0.987797229257596       0.991027444781346       0.955154066452049       3.650890024314400E-003 -2.052636261734866E-003   1.01434209867289       2.407866549431320E-002  4.405322516781122E-002  4.145470592399517E-002  3.894098900376483E-002  2.028070204304388E-002  6.997495685747111E-003  1.344145529382061E-002  0.943712111320788       0.940115589277072     
  0.942555297909794       0.987756260582165       0.994228227645068       0.994292477470138       0.945608695441925      -2.315884908143097E-003  0.958767940890855       0.951402206595234       0.947622936815451       0.988810032234845       0.992498111023540       0.938455813624062        1.01089972262972       0.991030676225862       0.934651754881013       0.956805611070114     
  0.954790554421122       0.952639909355528       0.971833654759834       0.945771084875401       0.957603930053174       1.008495471587376E-002  6.476006894732232E-003   1.01665682700734        1.01524340045729        1.01667687404712        1.01890701260735       7.345042702781876E-004 -1.504447450775035E-003  1.042881815663529E-002  4.740755683486503E-002  4.465564757055501E-002
  4.211402850208317E-002  4.063392005922659E-002  0.950446394719902       0.946326129882345       0.930640512159473       2.089146267294317E-002  1.755391924361445E-002  2.656393442903102E-002  0.989750632247113       0.978486411535652       0.982364217532547       0.986099547833717       0.975199295887942       0.975186926744412       5.114470866056922E-002  4.871343318116970E-002
  4.625125551910884E-002  4.387902709768814E-002  4.080088099563944E-002  0.953669857783614       0.956077099667666       1.404438115249336E-002  1.714597658116986E-002  0.961647341196406       0.993423581869842       0.964171289359498       0.960143129597066       0.966726446522001       0.940072416372872       0.998294310801487        1.00129216144533       0.994426660217151     
  0.942318980320492       0.938619901224615        1.00212601570834       0.948810806111277       1.379622799837009E-002   1.01781949180215       2.817499391275198E-002  3.066446537774025E-003  0.936354613460405       0.952760459997577        1.00054800875309        1.00330453678500        1.00642958176983       0.967593375094310       0.944926577061145       0.949684781501826     
  0.945117791857844       6.420963709786675E-003  5.091549100190489E-002  4.801733085747306E-002  4.483233558609059E-002 -9.328400027726700E-003 -1.241450493927533E-002 -1.582259787182765E-002 -5.624157193403008E-003 -7.989275834343106E-003 -3.694360249613292E-003  0.987615434355899       0.979634442943646       0.999631634487320       0.944426069527986       0.936660602616033     
  0.932636847263417       2.460571739907483E-002  2.851604486719611E-002  2.422328445666675E-002  0.997121633148708       0.998462900442572       0.990993120561881        1.01819160256957        1.02026276307183       0.990564821661830       0.996089298856377       0.997210760788137       0.994341151236811       0.984393890414960       0.963234628291674       1.022817683963160E-002
  6.389927466278714E-003  0.934564653146422       0.950845293746764       0.948506475545516       3.185638942131042E-002  3.076074315257235E-002  2.877836110913567E-002  0.942083842340555       0.947437605300271       0.944016771186561       5.468575682558688E-002  5.217860988980700E-002  4.958485667171546E-002  0.983436884599730       0.986991337462627       0.987488948638472     