 VARIABLES = "X" "Y"
 ZONE T="  0.000000000000000E+000 " N=        9944  E=       19548
 ZONETYPE=FETRIANGLE DATAPACKING=BLOCK
  -19.9782054645671       -16.7460447536127       -13.5432470514743       -10.4462771124608       -7.39483127129757       -4.39431260318683       -1.43672854734527        1.47853524247441        4.40194279230921        7.38347804238703        10.4122197804982        13.5308676756442        16.7310607632789        20.0189460056259        20.0156650185539        20.0123451374732     
   20.0090067226427        20.0056742799471        20.0022854763303        19.9988742323503        19.9954939648514        19.9920871178897        19.9886881104951        19.9853470049941        19.9820070605281        19.9783478910574        16.7317203104092        13.4557822172063        10.1645634122701        6.87452312340184        3.53259687976399       0.170578499054329     
  -3.16443525887912       -6.48474521199279       -9.79114624567630       -13.0836966857758       -16.3754018560739       -20.0188035791356       -20.0155069002833       -20.0121812769038       -20.0088400757232       -20.0054989473046       -20.0021446450312       -19.9987763328347       -19.9953939522161       -19.9920253568386       -19.9886729196427       -19.9853365630757     
  -19.9819979716434       0.998817431286538       0.997295935080966       0.995778739605007       0.994271692494483       0.992719810413929       0.991106692038043       0.989427461755333       0.987686602119080       0.985883985691622       0.984017265372547       0.982072375652589       0.980057878424316       0.977957511008494       0.975783992461294       0.973533443348504     
  0.971198418107832       0.968776348753809       0.966266405289329       0.963666255953958       0.960976261457759       0.958191419538458       0.955303886559241       0.952302496950385       0.949177791952905       0.945958628673975       0.942623239580081       0.939138905328061       0.935548207858220       0.931838974351475       0.927989636218430       0.923965105824353     
  0.919796165545738       0.915477529266466       0.910995233105296       0.906340243880563       0.901506063025278       0.896486112279321       0.891267725516301       0.885838051097640       0.880189354321519       0.874313793653594       0.868212474178781       0.861878090089375       0.855302613109437       0.848475939418086       0.841389124540936       0.834033606276585     
  0.826402945601089       0.818488651984423       0.810282406649159       0.801775784818570       0.792959913091867       0.783827131057144       0.774368536802441       0.764459433616610       0.754189274278106       0.743546702535829       0.732521141783467       0.721105718768982       0.709288203357967       0.697056119317844       0.684402431244913       0.671315612684708     
  0.657782009040405       0.643794554707638       0.629340091913189       0.614402294897237       0.598970470010740       0.583024414327950       0.566552149082212       0.549538731844092       0.532575361351219       0.515579836069458       0.498520010868956       0.481396151233797       0.464208041235966       0.446305690438832       0.429006344063261       0.412307939248292     
  0.396208279829160       0.380690930299631       0.365670791779230       0.351129150817100       0.337061590954752       0.323476591050010       0.310358829936353       0.297709034974757       0.285527828881500       0.273796662766253       0.262490272683388       0.251561065560122       0.240996239716066       0.230783233773336       0.220914614364808       0.211382122986344     
  0.202173941428117       0.193278702142532       0.184691656481462       0.176396466733204       0.168383343106361       0.160635226935600       0.153145193566744       0.145906765674953       0.138913762484727       0.132159895111882       0.125638203225930       0.119343049544033       0.113269160366057       0.107411168643635       0.101764478248349       9.632465786449562E-002
  9.108746711825973E-002  8.604936526470003E-002  8.120657109208265E-002  7.655527812993049E-002  7.217268820561389E-002  6.795280480407578E-002  6.389721167183489E-002  6.000411429478943E-002  5.627357039130466E-002  5.268374341992037E-002  4.924607996100182E-002  4.595844567081487E-002  4.280328292940837E-002  3.975175425037696E-002  3.680077448554615E-002  3.392784004557461E-002
  3.113331646081422E-002  2.842222586287358E-002  2.579739314362097E-002  2.326275587619174E-002  2.082437639290628E-002  1.848980476695898E-002  1.637525429497526E-002  1.434171700498861E-002  1.240858701029792E-002  1.059443271911782E-002  8.923469893105529E-003  7.332847063183613E-003  5.787934888077585E-003  4.389056914375188E-003  3.128457998500785E-003  2.043879231497645E-003
  1.194070811512997E-003  6.434753770506110E-004  4.015076745742322E-004  3.941895711538634E-004  7.137238595567074E-004  1.386649976815411E-003  2.363960352797209E-003  3.555704174554796E-003  4.891521496360051E-003  6.317827325308678E-003  8.035748431395772E-003  9.838125843209741E-003  1.174132826218513E-002  1.365906834960846E-002  1.562179244311597E-002  1.767803228517422E-002
  1.987879371534168E-002  2.219030491436600E-002  2.462253767400995E-002  2.711578204139190E-002  2.967770689253570E-002  3.235249689829389E-002  3.517980963145474E-002  3.815709427357028E-002  4.127386282522752E-002  4.451810911088689E-002  4.787899227030561E-002  5.134466615931166E-002  5.491175331306509E-002  5.858013734411195E-002  6.234250044779099E-002  6.655912215578244E-002
  7.092031443766421E-002  7.542351757229557E-002  8.006561967619773E-002  8.477800195858715E-002  8.962982514290543E-002  9.464735377959360E-002  9.982851299913834E-002  0.105175407923343       0.110678337749417       0.116356730871951       0.122251530354213       0.128412381824991       0.134852269295094       0.141574371625291       0.148575213145965       0.155856026510254     
  0.163419918138199       0.171267924954451       0.179404016526593       0.187831694381221       0.196555430282762       0.205759996708908       0.215304076682773       0.225193435958587       0.235437162991968       0.246043562362286       0.257019815189329       0.268376326096915       0.280123910405319       0.292270162186434       0.304825982198074       0.317803787438231     
  0.331211197417430       0.345058268400619       0.359358569309583       0.374112598849850       0.389331211979198       0.405020733235671       0.421166970118208       0.437780513462929       0.454804380965982       0.472230610955230       0.489734088508384       0.507108648027300       0.524352631848840       0.541468455526032       0.558459822889543       0.575009286300831     
  0.591093157425038       0.606691612156936       0.621803388512394       0.636430364663491       0.650536501191363       0.664132967899552       0.677234818602045       0.689859738392065       0.702027809316161       0.713790126452165       0.725188267935948       0.736230119223812       0.746923824070615       0.757271448672616       0.767281280596246       0.776962031314561     
  0.786322411337026       0.795284584415774       0.803917471763494       0.812225872933158       0.820215668565046       0.827891509183988       0.835257745224602       0.842321635642113       0.849145643326837       0.855759626891618       0.862166705950156       0.868370696139177       0.874375496575223       0.880185127829013       0.885802910176292       0.891231982429924     
  0.896475817588783       0.901538785877070       0.906428623971870       0.911149886908873       0.915707082691471       0.919911545289650       0.924000359683760       0.927971657704435       0.931828321538662       0.935555460312507       0.939150083963065       0.942618538450726       0.945953100002946       0.949157378536255       0.952246675589097       0.955196988972852     
  0.958014964494281       0.960756831945949       0.963419553318733       0.966001302544322       0.968500839161819       0.970917596390570       0.973252756913506       0.975507373376124       0.977684761789887       0.979788825163864       0.981771590313988       0.983699988072928       0.985559419650487       0.987354628611100       0.989089578511841       0.990765574002504     
  0.992378202430150       0.993928744591197       0.995419718179676       0.996906756236142      -8.605871383337506E-004 -7.055351458512987E-004 -7.601806820309956E-004  0.995050116511023       0.996494220715221       0.995040314631192       0.996305763851616      -2.267756646435930E-003 -2.892670578898817E-004  0.994748715232527       0.995527583531553      -1.910514539882881E-003
  0.993656208455399      -2.197626792731149E-003  0.993209135869916       0.991558837992821      -3.498964525430287E-004  0.991932062250764       0.992914107842008      -2.146336092610724E-003 -3.763782723465330E-003  0.994059677445665       0.994223245298594       0.997939306587591      -1.349754749328119E-003  4.111973634355577E-004  0.990178602886619       0.988405193702957     
  0.986627742192062       0.991022772126699       0.997253235982090       0.992549706970458       0.990349050973489       4.855684268853268E-004 -1.742010424424549E-003 -3.823634906640856E-003  0.991910790235327       0.996508135399990       0.999585081486000       0.997202749605255        1.00026089085423      -3.241349470292827E-003  1.384486546324693E-003  0.995643598909050     
  0.996002416207603       0.998572472750195       0.988624722955855       0.989190128765755       0.987336074034634       0.985419351553282       0.990078539220073       0.991854999701267       1.625544170212075E-003 -3.850814951423732E-004  4.357458226441442E-003   1.00137173498316       0.989612122455532      -5.193247547919917E-003  2.599017616654009E-003  0.990026364436230     
  0.986748107840067       0.988135403073635       2.911816545479144E-003 -3.842709202809280E-003  0.990767569792621       0.998982462990248       0.998458585896124       4.021877880631151E-003  0.988193311261707      -2.528043225052739E-003 -3.639571179553531E-003   1.00227809101981        1.00035217816582       0.993924443153286       0.998065796000820        1.00014260605020     
  0.992814469866525       7.275270748622446E-003 -2.159522641307976E-003  0.998724447115352       0.997878363703630       5.614921624245320E-003  0.984789960315729       0.982811301057984       0.991014719341734       0.997125182509560       0.986040733210853      -5.635051510267503E-003  0.987443268954131       8.910601513923696E-003 -4.972932842092349E-004  6.390262884361875E-004
 -5.249948986874544E-003  0.983320527990404        1.00256055257262       0.986203591584545       0.983993149070477       0.996885987878203       0.994850686831494      -1.499236323703148E-003   1.00314879440189        1.00502958709891        1.00087663500991       0.983901861727253       0.981660899271009       0.999994331065894       0.993317523213095       0.985259111030742     
 -4.705245097830786E-003  5.574917705905083E-003  2.212018436876334E-003  7.305815080399826E-003 -7.037316536265538E-003 -1.332282225081632E-003 -1.641254707224474E-004  8.219940276644678E-004  2.043727120740043E-003  0.993800690184685        1.00173254034835       0.994737222402644       0.987331731757141       0.991620717601397       0.980934982604387       0.978771442942751     
  0.981765006438831       3.703402978549102E-003 -5.423122764377727E-003 -7.274574635512058E-003  0.976615281307542       0.988848759646351       5.987795994543705E-003  0.985052863808227       0.990051602667061       0.992758461865765       0.999505651985694       0.998737479898889       3.810044911226194E-003   1.00448366565526        1.00345016200142       0.995649079328525     
  0.997603159585737       6.079535966635152E-003  0.999102764675732        1.00140834119576       1.064544028798479E-002   1.00204385747258        1.00597382970213        1.00372995811371        1.00632972605221       0.989143221991088       0.992345304012448       0.988174430935480       1.482238979722680E-003  7.790067979199664E-003  0.989091266892899       0.984970906067373     
  0.982306877305766       8.678769290301334E-003 -5.808813033885593E-003 -3.539338143873993E-003 -2.575764984415498E-003 -3.805351235063623E-003  0.990423234828861       0.991538553414766       0.979639802996026       0.977438888819933       0.975051403017746       1.167283637327575E-002  0.991176653906821       0.995089457745489       0.994060104299202       0.996216825186462     
  5.601990408560921E-003  1.364654646575712E-002  0.986785099314430       0.986480752370522        1.00233212016448       0.988362332280761       9.704473444937009E-003  0.986399471166705      -3.809539678243262E-003 -7.775810080676487E-003  0.980434737243187       0.979274712626194       1.258822957209811E-002  0.981058308746296       0.976789890395747      -5.777529845189013E-003
  0.984545120238048      -7.375635629841226E-003  1.065562174509678E-002  0.993706676448630      -2.590996382033205E-003  3.491038503981529E-003  0.974512468057131       1.165416847767920E-002 -9.324874989447853E-005  1.447018213364401E-003  1.566361427111155E-002 -1.028756380153666E-003  7.554730233562561E-003  0.977901409092230      -6.276372439672840E-003 -8.966726009205572E-003
  9.610968406444813E-003   1.00467517240124        1.00757033876485       0.978529253920053       0.976068929578437       0.972941554700484       0.983625572850546       0.981476349738490       0.992783100685674      -1.123649496160021E-003  1.359205279681444E-002 -9.628390864414667E-003  0.975875608254571       0.973514245016018       1.465508257986380E-002  5.209929863713136E-003
  8.418961894819048E-003  1.169600874587703E-002  0.972161619514951       0.969780130125527      -7.960974356659488E-003 -1.012982614571422E-002  6.181313113328829E-004  1.279470957377781E-002  0.982889710276543       0.980069899099157       0.981959607104041       0.979337342116939       0.979977208957960       0.979527012944782        1.00800634302264        1.00474140616966     
 -5.531555946517250E-003  8.692212020633517E-004   1.00127327192505        1.00051592724841       0.983960881958942        1.00335275798608        1.00299764905164       0.971023126317364       1.681549651682774E-002  0.981007779858349       0.982397359318065       1.076640693608258E-002  0.997804680210218       0.988714883016272       0.968451221438461      -3.722341809602452E-003
 -5.149552053174287E-003  0.984655410839142       0.995159199907016       1.499098487594407E-002  0.978661769840387       3.224415599873613E-003  1.780782084670762E-002  1.562259662231538E-002  0.972574554419198        1.00697832681791       0.977688820519134        1.00044784145460       0.999372637257103       0.977511115187124       0.996655256979381       1.307639291542370E-002
 -3.921852086251567E-003 -7.965174052030965E-003 -2.224317810861100E-003 -9.805385715893100E-003 -9.549117020714532E-003  3.225341740681870E-003  0.974709944954747       0.975069721938117       0.972495092500520       1.114735191098149E-002   1.00862511492571       0.969868779571161       0.967393021102079       7.374768088207040E-003  0.970762374830939       0.964895983807122     
  0.962650076220911       8.478622968513694E-003 -7.873769610628524E-003 -1.077575370886167E-002 -2.006775612880664E-003  2.009795174943407E-002  1.788913423141623E-002  0.995528323237730        1.00217363359921      -1.165549537022812E-002  0.982018430010796       0.978830721712515      -2.742413222869057E-004 -6.811553166589939E-003  1.549756413747475E-002   1.00108207210127     
 -1.026233520464972E-002 -1.262338300134190E-002  0.976853495235878       0.976373159056813       9.666151750644900E-003  1.027966939929680E-002  0.986759500507552        1.01009450965737       0.989656535361487       1.530457164755038E-002  2.609370055392966E-003  0.968546929921166       0.966045541136792       0.963401313250576       0.960329433967033       1.726043012414800E-002
  6.398922788254836E-005  0.969793245298388       1.343373327829460E-002  1.909309282426368E-002 -1.205579392946469E-002  0.992552482713633       0.993954017987732       0.996691622609247       7.314204943176795E-003 -6.524041248853219E-003   1.00530041081846        1.00525944864660       0.966956495117294      -5.250882800755881E-003 -4.950636017273668E-003  4.838881228273089E-003
  0.969934683071258       1.227739618150212E-002  0.998292621073253       0.999981823242953       2.249114495528603E-002  2.031349320487709E-002  1.796419844226691E-002 -3.416926173756339E-003  2.147901660538492E-002  0.974226642606441       0.971410193993837      -1.444863199024172E-002  0.987134128752412      -1.017569717423734E-002   1.00973552897249       1.535408998337752E-002
  8.865982252632149E-003  1.965164872504458E-002   1.00389144085236       0.967350102375804       0.964762977338845       0.995328457642181       0.961785560458854       2.489626995003303E-002  5.839651033815859E-003  2.281114189649914E-002   1.00789393264801       7.192554932561762E-003  4.483447852469298E-003  4.164528807092937E-003  1.765130363988707E-002  3.008954813956563E-003
 -8.392297798883392E-003  0.989631032248525       0.984648057913964       0.982633804843020       0.985046270954767       0.987081386306741       0.994219245008130       1.538110639530685E-002 -1.257519066233810E-003  0.965559955148918       2.024622738049817E-002  0.968627886287363       0.990081128178095       0.989099198825755       0.986743117157137       0.984527578582046     
  0.987424324273533       0.988359263633520      -1.215797222802743E-002 -3.222164016652286E-003  0.999511711509886       0.983765993675754       0.967653255748912       0.997162026850163       0.995937601143950       2.725704789821106E-002   1.00738951331487        1.00562260640733        1.00915101783406        1.01084269327223      -1.266189860632734E-002 -1.528447994813820E-002
 -8.036728734432621E-003  2.060367671738069E-002  1.807367579910590E-002  1.530400708209240E-002 -9.641736328267911E-003  0.989953678826633        1.00823788382473       5.832197454981435E-003  0.979775339852981      -6.703254474270401E-003  0.991628081794181       0.992333972811660       0.993488665736358       1.970469971434786E-003  0.971488418373024       1.325781560642735E-002
  1.283037528354316E-002  0.980235876974376       0.969865534773048       0.958459594857519       0.962431969192996       0.959554267199746        1.00342018580036       0.964072139544894       0.966964204020896       0.972854784956745       0.971171434737774       0.974846359028246       0.975759126171335       0.974139676765483       0.972501627582696       0.956577712241637     
  0.953305339194797      -4.792606137733160E-003 -1.241615640902257E-002   1.01133950554836        1.01254149590557       0.981627535964768       0.979054479345969       6.183487382447486E-003  4.309955265684332E-004  1.343835657344449E-003  1.027547523117269E-003 -6.217036029918787E-003   1.01061834268094        1.00630968137877      -9.963981977109512E-003  2.983628760419380E-002
  2.696547291022411E-002 -1.486419805170880E-002  9.923434093706773E-003 -1.511866665616450E-002 -1.806653116693905E-002  0.991243276073541       0.989335557114112      -1.229692153629049E-002 -1.503658996609720E-002  2.627892179713121E-002   1.01025128639661       1.258344234312594E-002  0.985722026522302       0.986308665919748        1.00233047775025        1.00831986176619     
   1.01118723533686       0.986927609597875       0.961247693798551       0.958307310556147       0.955083800151034       0.951559576527364      -2.412141247015287E-003  0.977201074790650       0.984154026020892       0.983570210886351       0.981855938845544        1.00843338865509       0.976725895740856      -1.187976688253260E-002  0.983322580045440       0.966285829501682     
  0.968202307370593       0.969552511155214       0.970724437784365        1.01033469509569        1.01090222806756      -8.326166450024729E-003 -1.777848761253079E-002  0.962838773654191       0.973218659008800       0.970300565707832       6.943107877164212E-003   1.00646830604818      -4.339125674051129E-003 -7.908195555657241E-003   1.01112419727943        1.00348046183248     
   1.00136523720925        1.01213771204678       2.346166993087751E-002  2.890867348441655E-002  2.623183005214455E-002 -9.307409141437482E-003  2.211089740052435E-002  2.388533199711347E-002  2.300849542659287E-002  0.977469228891722       0.975931519165574       3.931347951798002E-003  2.663258517665567E-003  0.998382163051575       9.298216244990064E-003   1.01320804011476     
  0.960308766875313       0.986974583039697       0.992626712725985       0.994474186477286       0.956878612728545      -1.164010810129653E-002 -1.501261431803313E-002  0.963787481628432       0.979448961780000      -1.486302451062981E-002  0.980617720080737       0.983829138036224       0.990192134566122        1.00572981726661       0.972311825167668       0.968491539259866     
  0.965431468022756       0.963147573343793       0.967112792064326        1.01258874006776      -7.475738400252221E-003 -1.092965756056970E-002  1.236571508489449E-002  2.507540593053425E-002  2.099520321837110E-002  1.819592004544017E-002  3.260660827553670E-002  3.014399767331005E-002  2.867790385486767E-002   1.00432015619118       1.521487336949702E-002 -1.784301795616617E-003
 -1.804085971227867E-003   1.01342842040029        1.01573497533579      -1.497150691040726E-002  0.953757178217255       0.950627579075352       3.178913338815294E-002  2.953532408025483E-002  2.730835612773632E-002 -1.249270589932328E-002   1.01308726797745        1.01678123075589       0.974744014497331       0.969307443643158      -5.440123838764614E-003  9.657569372836086E-003
  6.514874067018514E-003 -1.811213554926817E-002   1.01335360599569        1.01445291723230       2.432062860893679E-002  2.094622787907824E-002  0.965096957369716       0.966619011460829       0.968116875566255       0.968300252100693       0.997100095421623        1.00482707256205        1.00755759236997        1.00336749178291      -1.014667526749612E-002 -1.268879687758817E-002
 -1.485833881979317E-002  0.947428775019671      -1.075358523953275E-002 -1.414797287751532E-002  0.974647418050193       0.955250669436636        1.00828925088338        1.01112761608643       0.980353118705813      -1.400342560492541E-002  0.990479582195962      -1.758430587488562E-002 -2.085869442073117E-002  3.466540156805659E-002  3.251117142178864E-002  3.039683166411125E-002
  2.844291477676557E-002  0.971706642795685       0.974503991325366        1.00029244446993       0.999050659596733       2.434495038822919E-002   1.00648435064499       7.968154523208282E-004  6.739135413023229E-003  3.878442988067668E-003  0.966027045426565       0.968405583170588       0.977655941800041       2.407556524980731E-002  1.802361488717339E-002  1.539270678048306E-002
  0.999007406489866        1.00154926643301       0.998084628926124        1.00525352004347        1.01388664545618        1.01408499254945       1.248526193698277E-002   1.00281024684765       3.552163629802125E-002  3.261214252602168E-002  0.952186321411715       0.948914737291519        1.00463832160649       0.945329848465667       3.755969205745098E-002  3.535083486629899E-002
  3.325662382994642E-002   1.00831275036932       0.960019369414863       0.956517026357908       1.849631994353277E-002  0.961655538464709       0.984182924675949       0.976194265736338      -1.664390131792098E-002  0.964929285018070       2.134262613305492E-002  1.828749824126806E-002  0.963368309801376       0.965366005781346       6.511954680387245E-004 -6.578570333060935E-003
 -1.363825059263074E-002  9.515256693562813E-003  0.963226645639206       0.961025774337484       0.967347996506004      -1.737025185739413E-002  9.355590727308587E-003  0.953709244294303       1.508945455549868E-002  2.173967496892831E-002  2.510625130586910E-002 -1.237437708869738E-002 -1.530494266594504E-002 -1.372769009174108E-002 -1.709206290245650E-002 -1.728348617735323E-002
  0.953724107280357       0.957917146809207      -2.139109483698694E-002  4.055457463910698E-002  3.817805547179664E-002  3.585851066332164E-002  3.408744126228370E-002  6.493905751449348E-003   1.01168938005739        1.01625713887936        1.01820974345224        1.00904335789529        1.01594854795713       0.971094193808676       0.974487704259051       0.959720466392073     
 -1.705793460793176E-003  3.867733441521261E-002  3.588615982411361E-002  3.283241115195051E-002  0.950844608396658       0.947056879100913       2.474675718275005E-002  0.996031143023147       4.010584362216294E-003  3.670862210567752E-003 -1.791626924416260E-002 -1.577989898074215E-002 -1.767146796830020E-002  0.961709208998784       0.957796064472513       0.977309044075662     
  6.631343133843879E-003  4.494591840073228E-003  1.275894680311195E-002  1.206113880158248E-002  0.942484321404233       0.947999291053257      -1.804033366498987E-002 -1.793819362507870E-002 -1.730246665821494E-002 -2.110410499963608E-002  0.964029442374849       4.370504385745431E-002  4.127747966443401E-002  3.837386169477203E-002  1.910833908453933E-002  0.953661486930569     
  0.957073249983052       0.959238363778919       0.950132832634520       0.955812314152351       0.952263270722445       0.948660068005830       8.675068664838165E-003 -1.237682635118888E-002  0.997063842826680       0.973533371506932       0.972316396845386      -2.026372623101918E-002 -2.019512503649755E-002  0.970101059749677       1.573467101630445E-002  1.121345483253330E-003
  0.980772298484758       0.983813516479245       1.619599229072918E-002  2.158990296056430E-002  1.836678339726826E-002  1.497459755643156E-002  4.193636797835811E-002  3.926973366927645E-002  0.978107034575050       0.972914015700202       9.636751392393235E-003  6.350929610432118E-003  0.944559793743810       0.941070793434449       6.257489685843394E-004  1.166045754146790E-002
   1.01346249078121       0.959913228454586       0.955771782332051      -1.925110184852109E-002 -2.151334776654968E-002  0.937482931152745       0.933844039707607       2.265012406495689E-002  0.946606300261601       3.638694320530123E-002  3.317757534250299E-002  2.638687841692500E-002  4.698079990022951E-002  4.461530366291067E-002  4.218981316064457E-002  4.014027316796619E-002
  1.870986165166527E-004  0.987014426176113       0.990240103390590       0.954490747026441       3.385811046277657E-003 -2.229180388757214E-003   1.01350056162329       2.507239779664766E-002  4.523900648288330E-002  4.261539152340254E-002  4.007802054373932E-002  1.983068044597574E-002  7.841356615826765E-003  1.306355813278193E-002  0.943103486166262       0.939523858347661     
  0.941509755562291       0.986981590715716       0.993428256930510       0.993501789783777       0.944570839445039      -2.523444549214771E-003  0.958087348636179       0.950756309409212       0.946994859273418       0.987866956416170       0.991559604806505       0.937399360497887        1.01006149807246       0.990251534135460       0.933586034453691       0.955798528599263     
  0.953777730858254       0.951621823732856       0.970858643355338       0.945152124015118       0.956931587435265       9.733985019934832E-003  6.150635918153573E-003   1.01579013650534        1.01436207934002        1.01579082566286        1.01802730526748       4.888736863016799E-004 -1.746746289663011E-003  1.131151336610060E-002  4.861883945750386E-002  4.583921299052231E-002
  4.327671215621542E-002  4.177993158726261E-002  0.949423090811704       0.945293379297685       0.929564661090167       2.185827838127639E-002  1.849665824725027E-002  2.758138130392827E-002  0.988805114900267       0.977523839963987       0.981408626312098       0.985149426757344       0.974230859137871       0.974216688657623       5.036201784200049E-002  4.796066170547671E-002
  4.552521860405725E-002  4.317651781914521E-002  4.013263009940142E-002  0.953014503105889       0.955413288928980       1.496368852684906E-002  1.672337004601283E-002  0.960953947758938       0.992482449279613       0.963472858002237       0.959462391445549       0.966022196662787       0.939020628393017       0.997365509480805        1.00036683763348       0.993643500719723     
  0.941714764791653       0.938033427388403        1.00131452033254       0.947784006492289       1.340029620280184E-002   1.01697998172730       2.920612712134727E-002  2.787427299041705E-003  0.935781155913099       0.951742701500015       0.999749072348455        1.00248202889425        1.00560944026358       0.966608169331370       0.943891535138826       0.949045926080954     
  0.944499241207056       7.277006874046667E-003  5.215288758901258E-002  4.922616477979654E-002  4.601329180754185E-002 -8.711234688566485E-003 -1.182314770694219E-002 -1.524253326205588E-002 -4.963664541466782E-003 -7.332516821071377E-003 -2.988749579773694E-003  0.986848977644110       0.978672051950534       0.998701122461151       0.943812109522525       0.935601481962738     
  0.931567945421535       2.560573721930759E-002  2.955020674525440E-002  2.372769139939510E-002  0.996329329711066       0.997676149145765       0.990222086655296        1.01729425180727        1.01940174260824       0.989616927636977       0.995155328757356       0.996273682325237       0.993397058223771       0.983631902447471       0.962239439658795       9.857646571053150E-003
  6.043505419881978E-003  0.933997514450552       0.949822917296136       0.947479578457243       3.127886465201389E-002  3.019343109560206E-002  2.822905247041117E-002  0.941040383223608       0.946408397621961       0.942979549388762       5.387085422297533E-002  5.139447348627723E-002  4.883114921844779E-002  0.982480483110445       0.986039298436489       0.986535006358507     