variables = "x," "y," "f"
zone i=  2601 j=  2601 datapacking=point
     0.81125823     0.16831524     0.23334525
     0.00504067     0.07423941     0.13135914
     0.48063462     0.22586055     0.45956810
     0.71962129     0.90219761     0.22701798
     0.95960263     0.29515858     0.19856877
     0.94871935     0.92512674     0.14151354
     0.36186427     0.13228274     0.28721760
     0.54368183     0.95190625     0.23253643
     0.42568311     0.00629765     0.20499610
     0.66172489     0.98025750     0.19490275
     0.66822238     0.13125293     0.27600682
     0.34024757     0.77340827     0.37923177
     0.76124696     0.63284933     0.41406318
     0.98130403     0.18680775     0.15561197
     0.79950480     0.11956533     0.20971016
     0.20867755     0.21462531     0.27618488
     0.30243324     0.72773761     0.40184924
     0.07704360     0.65699927     0.24711055
     0.79255911     0.02329259     0.16540147
     0.73933438     0.22102357     0.31753933
     0.06323011     0.67590197     0.23300524
     0.67467561     0.44527036     0.67128927
     0.38174763     0.63700761     0.68019341
     0.11885707     0.57629630     0.29398224
     0.57622612     0.45097463     0.88775854
     0.56517722     0.93738184     0.24130102
     0.70512583     0.95340453     0.20076916
     0.03749264     0.98226314     0.12286319
     0.15804777     0.58860919     0.33429640
     0.67722214     0.34371993     0.52873802
     0.07939383     0.21236447     0.19507147
     0.55733667     0.01901953     0.21396597
     0.44303546     0.12834895     0.30683226
     0.14817159     0.89432230     0.18523081
     0.81821583     0.05485432     0.16984114
     0.68648679     0.07810104     0.22783652
     0.18835627     0.17313123     0.23741499
     0.48509232     0.95811325     0.22979339
     0.17228994     0.18232109     0.23380303
     0.78308616     0.23092960     0.29250294
     0.40221283     0.32612835     0.61296087
     0.74109324     0.52605338     0.53531692
     0.23925984     0.30195522     0.36617184
     0.87035301     0.61074348     0.28506757
     0.64006245     0.42266154     0.72158616
     0.35974057     0.40921487     0.69966480
     0.60493918     0.80280493     0.36761993
     0.67294670     0.33885059     0.52796554
     0.59662138     0.80932593     0.36408668
     0.14329466     0.49781595     0.32904116
     0.26420785     0.66725582     0.42674849
     0.13689795     0.95537904     0.15529395
     0.56353050     0.30497808     0.59817990
     0.99651374     0.06343789     0.12632058
     0.33109731     0.48936729     0.70412761
     0.55365527     0.83410499     0.35218644
     0.52601368     0.64578010     0.77175536
     0.71766311     0.82533356     0.27710363
     0.13992710     0.70213078     0.27499971
     0.97700084     0.89240961     0.14044712
     0.16585560     0.24241385     0.26293715
     0.52580597     0.29230477     0.59221816
     0.86601655     0.26525204     0.25197851
     0.65296139     0.07562670     0.23558200
     0.15103218     0.34934215     0.30186192
     0.08186416     0.28592603     0.22100368
     0.31997856     0.51298873     0.67527128
     0.87818232     0.95352334     0.15482637
     0.89243739     0.03511236     0.14232602
     0.65509146     0.05037080     0.21821526
     0.16939579     0.13992374     0.20830687
     0.02615291     0.31233576     0.19301450
     0.40053788     0.11493215     0.28209346
     0.00046064     0.38011201     0.19215798
     0.31565197     0.04200023     0.20550328
     0.21002384     0.73823932     0.30326869
     0.43013750     0.48593844     0.93301964
     0.96531760     0.54601838     0.22046513
     0.41474839     0.00554961     0.20352798
     0.65548742     0.06129465     0.22507545
     0.08111725     0.29679959     0.22378639
     0.05009126     0.15738459     0.16264348
     0.90077381     0.45654323     0.27457029
     0.93985508     0.11863746     0.15217396
     0.07437444     0.42534972     0.24977539
     0.61286743     0.21946324     0.40585732
     0.07196652     0.46492489     0.25202967
     0.46022955     0.01371392     0.21154799
     0.66161184     0.04427787     0.21309149
     0.43496825     0.96820560     0.21852544
     0.52094117     0.64458465     0.77762219
     0.90491702     0.45353433     0.27021441
     0.76627434     0.38111726     0.42573578
     0.70829607     0.97372870     0.18897397
     0.59163888     0.07038416     0.24441217
     0.27869842     0.06079576     0.20598207
     0.23857435     0.10544371     0.21870291
     0.59950360     0.10127808     0.26932621
     0.96499805     0.56164388     0.21918670
     0.28937635     0.65369018     0.48213122
     0.83209066     0.36939084     0.32844080
     0.64790860     0.57104346     0.72637801
     0.12719303     0.73122601     0.25175979
     0.17197369     0.03196556     0.15898177
     0.09580598     0.60423461     0.26997683
     0.55785450     0.55175427     0.92998453
     0.40920253     0.87645413     0.29710656
     0.17551071     0.20736981     0.25011505
     0.32980667     0.15135534     0.29286477
     0.59430458     0.12493154     0.29398145
     0.04293555     0.15534004     0.15936608
     0.41319409     0.19493204     0.38556645
     0.34323432     0.98255715     0.19616221
     0.33895137     0.46622452     0.71448636
     0.43240667     0.72894053     0.53843692
     0.25780723     0.99207386     0.17191304
     0.38599162     0.21750455     0.40347640
     0.26812943     0.47134896     0.54435938
     0.12296930     0.04535950     0.14915308
     0.70464163     0.26294412     0.38849292
     0.24591122     0.59598629     0.46024027
     0.80693973     0.89571454     0.20234386
     0.13152631     0.86899268     0.18988927
     0.11397047     0.29452721     0.24716374
     0.01539957     0.12453297     0.14283026
     0.88392800     0.84651044     0.19405757
     0.52357613     0.91805305     0.26420983
     0.01464842     0.53221639     0.21284871
     0.59737142     0.00119053     0.20151675
     0.22094241     0.79624423     0.26956570
     0.88574543     0.99350895     0.13753031
     0.83378320     0.72918031     0.26100709
     0.52041994     0.69175991     0.65191604
     0.69984154     0.91469266     0.22525367
     0.94224735     0.94160786     0.13863726
     0.46925366     0.81400179     0.39189775
     0.60051180     0.25211846     0.46591516
     0.96984787     0.90517165     0.13959948
     0.58488017     0.33482615     0.64301203
     0.74148632     0.99553519     0.17091213
     0.12217784     0.38090347     0.28461605
     0.49874392     0.44624266     0.95111763
     0.27800513     0.39789408     0.51512915
     0.48182557     0.41698923     0.89421750
     0.25104012     0.83582865     0.26075688
     0.51423199     0.60024675     0.88746949
     0.36839286     0.93566446     0.23294624
     0.94138167     0.71442681     0.20182344
     0.19202074     0.00840294     0.15722387
     0.46182566     0.37742127     0.79327861
     0.45208142     0.22477491     0.45059411
     0.33387027     0.25409622     0.41283696
     0.46605366     0.41063399     0.87215241
     0.69392021     0.14517409     0.27742991
     0.02216477     0.30727484     0.18975140
     0.03843264     0.54740129     0.22782162
     0.01969244     0.47406540     0.21362769
     0.23565420     0.42450744     0.45702193
     0.21228359     0.73425274     0.30803489
     0.14632510     0.05564291     0.15951268
     0.82075440     0.63949607     0.32457856
     0.74945524     0.36645362     0.44013813
     0.79395786     0.32506563     0.34738930
     0.31124792     0.08194257     0.22888035
     0.36064628     0.31062612     0.52904371
     0.71234749     0.94469417     0.20398098
     0.48033653     0.92092771     0.26252264
     0.69814317     0.42998895     0.60242111
     0.82756987     0.12953002     0.20282423
     0.10360033     0.84575347     0.18719160
     0.35297993     0.81240284     0.34144160
     0.78938226     0.03264147     0.16994741
     0.86158316     0.24501684     0.24569029
     0.89921744     0.66668474     0.24035028
     0.99479722     0.97775455     0.11455321
     0.38427178     0.51093290     0.84108778
     0.30938638     0.81822159     0.30783057
     0.41629559     0.44276721     0.86589825
     0.74770479     0.50429072     0.52358023
     0.82506466     0.39532075     0.34824958
     0.05852832     0.43382478     0.23772508
     0.75921843     0.81361064     0.26278411
     0.73323444     0.11262267     0.23450999
     0.12759925     0.18982025     0.21238133
     0.02036649     0.45421513     0.21263591
     0.14583390     0.06323679     0.16220658
     0.27754425     0.22051853     0.32884769
     0.61388617     0.97316095     0.20741843
     0.34960481     0.90190671     0.25517710
     0.05106932     0.55135235     0.23665537
     0.27485320     0.51276854     0.56250908
     0.57571206     0.04359667     0.22718306
     0.81113469     0.75774244     0.26229021
     0.29752367     0.23154969     0.35485506
     0.63018507     0.51032886     0.81210812
     0.26100749     0.45969069     0.52465492
     0.16274596     0.20710367     0.24194134
     0.38210590     0.43877478     0.79124859
     0.40687297     0.51010628     0.89265695
     0.12171656     0.29208309     0.25224183
     0.15704117     0.98812561     0.14882097
     0.71852335     0.00684201     0.18079431
     0.48215572     0.15051002     0.34019030
     0.13908932     0.14201981     0.19499093
     0.48807517     0.13540533     0.32089357
     0.70881177     0.79506840     0.30552957
     0.84839169     0.46127619     0.33589252
     0.51001510     0.97410890     0.21782544
     0.70611276     0.36775248     0.51402920
     0.43999348     0.16970976     0.35929797
     0.69701686     0.62712810     0.53845179
     0.91767480     0.35387565     0.24288426
     0.46526826     0.88606328     0.29777544
     0.30657821     0.88181668     0.25514842
     0.63658278     0.25621809     0.44316920
     0.38008189     0.63923979     0.67274295
     0.22822590     0.23367891     0.30327132
     0.85275608     0.86275637     0.20048729
     0.32412038     0.93884614     0.21961265
     0.02793815     0.60159336     0.22142267
     0.31892647     0.79848251     0.33317041
     0.47789323     0.14099572     0.32736722
     0.87226936     0.24714092     0.23960602
     0.51602850     0.46409927     0.97155531
     0.49190201     0.67466686     0.70307196
     0.76889489     0.42380785     0.45113413
     0.58143861     0.80083638     0.38504677
     0.11561721     0.01544557     0.13961743
     0.13776411     0.09688268     0.17323481
     0.80283424     0.99083858     0.15848776
     0.31158037     0.82174250     0.30606920
     0.64475570     0.72590641     0.45130896
     0.81652648     0.63537121     0.33239813
     0.49973751     0.76509827     0.48115559
     0.48358657     0.29837168     0.61049267
     0.39233114     0.21887473     0.40965285
     0.20972439     0.90713560     0.20123842
     0.21030550     0.38032175     0.38913544
     0.68753443     0.76579115     0.35041694
     0.78140662     0.46186837     0.44514995
     0.65785521     0.63512511     0.60223513
     0.08386455     0.46154898     0.26254971
     0.13054193     0.78040025     0.22904464
     0.96253537     0.56831496     0.21995893
     0.00862574     0.32346290     0.18603292
     0.15548223     0.29068153     0.27902651
     0.59472421     0.45566001     0.86015649
     0.53285843     0.06740606     0.24889708
     0.05467205     0.78983139     0.18488099
     0.50479674     0.99804377     0.20221097
     0.87504183     0.59151240     0.28727398
     0.75537777     0.85151144     0.24339038
     0.94488887     0.98913026     0.12395772
     0.69502068     0.87697875     0.25145845
     0.00681373     0.02004864     0.12612877
     0.37577184     0.78760972     0.38804731
     0.11373707     0.60111832     0.28608489
     0.77887031     0.15975864     0.24523885
     0.20182919     0.54166454     0.40831336
     0.29082462     0.05922040     0.20864682
     0.90330608     0.09235944     0.15647591
     0.26164557     0.35884350     0.44754119
     0.58747784     0.53986981     0.89207324
     0.90002791     0.27852946     0.23346363
     0.10890490     0.01626883     0.13836864
     0.32744140     0.60317463     0.62260086
     0.27189296     0.77137974     0.32354898
     0.14211879     0.01341775     0.14529405
     0.08988815     0.45451572     0.26763673
     0.26879615     0.87853973     0.24137697
     0.91254807     0.09471002     0.15414772
     0.08015213     0.41254194     0.25269890
     0.73815724     0.94309715     0.19829648
     0.10230117     0.90681316     0.16261574
     0.41232802     0.94370062     0.23465684
     0.62638031     0.40262217     0.71708109
     0.78997935     0.12066236     0.21461803
     0.74699054     0.44448543     0.50697111
     0.49160010     0.22895792     0.46623281
     0.52544320     0.59942645     0.88353553
     0.21188069     0.75368001     0.29314816
     0.14486472     0.66513758     0.29629546
     0.84060242     0.73050415     0.25584727
     0.69573663     0.94728515     0.20650236
     0.27432474     0.50792934     0.56198044
     0.61199419     0.72351454     0.49412681
     0.82361129     0.96654201     0.16414738
     0.86674981     0.64511115     0.27419243
     0.74388623     0.29811969     0.38308254
     0.09839191     0.95095020     0.14556516
     0.22109382     0.08745613     0.20112184
     0.25528539     0.21959669     0.31203192
     0.66385782     0.60549973     0.64091290
     0.15882638     0.73922222     0.26738124
     0.56613984     0.65723175     0.70522578
     0.87194468     0.00784698     0.14047309
     0.79192153     0.17248252     0.24661911
     0.86742521     0.10711088     0.17526607
     0.40174034     0.03487673     0.21766000
     0.19444990     0.69216512     0.32432597
     0.80767925     0.25948867     0.29246908
     0.96816796     0.86739404     0.15103990
     0.53213983     0.72225076     0.56850324
     0.59368899     0.08116895     0.25278971
     0.24194494     0.99583582     0.16637013
     0.62999449     0.04338000     0.21904289
     0.76918557     0.74235216     0.30202307
     0.20203814     0.13754245     0.22259710
     0.33210584     0.48174065     0.70459854
     0.81861445     0.68471898     0.29758832
     0.10050313     0.81891294     0.19650668
     0.87662829     0.83662983     0.20050818
     0.91418762     0.79958759     0.19483198
     0.80946641     0.56205514     0.38512130
     0.84581293     0.25241869     0.26006722
     0.74507868     0.82231893     0.26493017
     0.06250091     0.21710215     0.18774806
     0.47091932     0.68009707     0.68325498
     0.61683459     0.38959634     0.71087244
     0.54957499     0.68767714     0.64384688
     0.72573437     0.61513517     0.49789007
     0.60177083     0.74525596     0.46251132
     0.66277380     0.82760750     0.30475591
     0.88472065     0.05864790     0.15101090
     0.63908630     0.59060502     0.71874048
     0.66943309     0.77101110     0.35981175
     0.94084312     0.85371947     0.16692847
     0.75601378     0.43513197     0.48282818
     0.00032249     0.63793095     0.20470499
     0.16206959     0.60975349     0.33322794
     0.92710191     0.09456949     0.14928256
     0.98449053     0.45164862     0.20796993
     0.26124583     0.18477028     0.28718939
     0.72821597     0.65931513     0.43710106
     0.51992737     0.83135633     0.36536145
     0.91984400     0.77583147     0.19825076
     0.30525613     0.81942643     0.30417552
     0.34333647     0.37253504     0.60754230
     0.62591030     0.63885636     0.65532474
     0.17847521     0.17392466     0.23241297
     0.75201850     0.31369914     0.38787396
     0.46250634     0.46557856     0.95997977
     0.04533187     0.45245724     0.22948871
     0.07530680     0.55910151     0.25537478
     0.98238741     0.74066058     0.17644021
     0.15170672     0.31460842     0.28689326
     0.63416293     0.49563213     0.80161757
     0.71926019     0.02994852     0.19047831
     0.39411382     0.05526578     0.22975546
     0.01393609     0.46972619     0.20989966
     0.52914842     0.96107689     0.22666222
     0.08654453     0.40822972     0.25757624
     0.43431860     0.42570665     0.86755588
     0.31970755     0.95243209     0.20937022
     0.09802884     0.75686206     0.22217048
     0.88904881     0.48060541     0.28840337
     0.32143417     0.31169748     0.47778452
     0.46796446     0.22203577     0.45034764
     0.61537054     0.49449553     0.84518046
     0.00816927     0.28631112     0.17834465
     0.20486808     0.26598458     0.30699765
     0.70985716     0.04020931     0.19825739
     0.03795525     0.21618918     0.17546637
     0.24944708     0.27510323     0.35395401
     0.21377660     0.08990032     0.19964197
     0.10282671     0.31989381     0.24725399
     0.65177415     0.56097415     0.72892397
     0.13011388     0.61583908     0.29883818
     0.92820325     0.54461660     0.24782184
     0.97209895     0.00866382     0.12547273
     0.39117881     0.32565509     0.59786561
     0.79298187     0.93823853     0.18588795
     0.98958889     0.57047068     0.20438520
     0.96208723     0.45787747     0.22280777
     0.27026984     0.17131705     0.28123121
     0.54215206     0.95611384     0.22940638
     0.03343441     0.85857986     0.15124375
     0.61832124     0.60233119     0.74260898
     0.40387093     0.51414410     0.88550478
     0.87877562     0.19716176     0.21239369
     0.22386273     0.77503715     0.28576895
     0.19482764     0.94049756     0.17895413
     0.93565185     0.37081792     0.23246844
     0.35077057     0.04681048     0.21601052
     0.58825957     0.48537860     0.89866165
     0.07585154     0.74129346     0.21638486
     0.02941089     0.11792204     0.14468773
     0.67067208     0.35136193     0.55087395
     0.43130102     0.48982617     0.93675079
     0.93617363     0.91942046     0.14792409
     0.64546746     0.91066142     0.24345834
     0.64913592     0.51102654     0.76584851
     0.79861959     0.89804433     0.20394909
     0.50023793     0.18265533     0.38727851
     0.18973220     0.88113106     0.20762403
     0.89521768     0.75179446     0.21695727
     0.82596836     0.13925425     0.20891923
     0.71155652     0.03753052     0.19639954
     0.26342327     0.49089258     0.53729536
     0.20229873     0.69028320     0.33292734
     0.66298231     0.49021358     0.72933042
     0.53648221     0.65596836     0.73791733
     0.85915733     0.94020375     0.16602653
     0.97986102     0.66575945     0.19334643
     0.01126781     0.91193188     0.12929347
     0.97358621     0.49161422     0.21659382
     0.37290754     0.25767498     0.45467884
     0.28521045     0.26394114     0.37788316
     0.75659410     0.19138765     0.28127643
     0.59883267     0.82139759     0.34734381
     0.99590106     0.06895805     0.12695653
     0.91572372     0.26938674     0.21951625
     0.59859740     0.59221603     0.79977925
     0.77064905     0.21179336     0.28750912
     0.96413149     0.76171887     0.18011682
     0.39638042     0.80695920     0.37431872
     0.58119961     0.02647882     0.21601435
     0.47638335     0.15416432     0.34465903
     0.71869907     0.03322552     0.19219794
     0.81661644     0.16603156     0.22910724
     0.55804002     0.39738376     0.81634330
     0.67533186     0.68206417     0.48653700
     0.48256040     0.80622568     0.40577699
     0.83250238     0.20086282     0.24072382
     0.33647996     0.53697753     0.70915462
     0.22480055     0.16556589     0.25240959
     0.77532016     0.73327274     0.30354572
     0.18077783     0.82620688     0.23172876
     0.79320598     0.45927636     0.42231956
     0.22911119     0.34272364     0.38735790
     0.34992199     0.53638376     0.74438856
     0.73514931     0.55900036     0.53255116
     0.75169199     0.97879833     0.17643204
     0.98324400     0.35096717     0.19652772
     0.07013260     0.27655899     0.21047225
     0.60098528     0.98274930     0.20366876
     0.22283324     0.27466704     0.32868104
     0.87334402     0.92838925     0.16661613
     0.78549147     0.37617421     0.39273464
     0.86855213     0.28416490     0.25832272
     0.06863256     0.59268400     0.24902027
     0.69194843     0.17840692     0.30921527
     0.25548698     0.23249086     0.32296543
     0.90238165     0.18512989     0.19414951
     0.30538250     0.90398684     0.23836723
     0.80659010     0.12221547     0.20809218
     0.18599722     0.78893925     0.25439454
     0.74545057     0.12559898     0.23819483
     0.90774258     0.84291258     0.18500965
     0.29529248     0.41310018     0.56521341
     0.76765854     0.64716145     0.38968400
     0.47383025     0.37763491     0.80093774
     0.22944110     0.72156998     0.33280577
     0.65212650     0.14875164     0.29915780
     0.72459093     0.45285485     0.56113405
     0.61731700     0.74119380     0.45450154
     0.74349116     0.56338467     0.51107002
     0.37798358     0.31294982     0.55597179
     0.37707557     0.51532326     0.82267344
     0.00653282     0.66510639     0.20341388
     0.36681980     0.92952449     0.23741416
     0.06420550     0.95299671     0.13500331
     0.79081439     0.69008041     0.32178128
     0.66223956     0.65286456     0.56114059
     0.38639875     0.59670303     0.76289427
     0.03959733     0.15650571     0.15852701
     0.16432214     0.33218293     0.30726435
     0.89219028     0.78401878     0.20963111
     0.86479274     0.43420490     0.31059384
     0.09677097     0.64177023     0.26496811
     0.45816313     0.60781372     0.85496902
     0.80247321     0.80823397     0.24371742
     0.52397672     0.69877696     0.63187660
     0.40985153     0.96763487     0.21603834
     0.91140573     0.96155770     0.14185016
     0.33059501     0.80260967     0.33717768
     0.57478054     0.61212152     0.80102529
     0.12053708     0.31397210     0.25958445
     0.26739342     0.04976002     0.19662833
     0.05927870     0.39440152     0.23213661
     0.95807474     0.32887117     0.20786019
     0.84084712     0.26436795     0.26971773
     0.39853390     0.69585200     0.57952959
     0.21154360     0.53096255     0.42762007
     0.56666679     0.61609516     0.80403978
     0.03556073     0.31927521     0.19995081
     0.18476112     0.00232412     0.15349204
     0.11719763     0.93227574     0.15806464
     0.28120346     0.43235858     0.55243172
     0.68442422     0.87602867     0.25603649
     0.25365858     0.97217967     0.18022687
     0.65731931     0.94266899     0.21822098
     0.17971530     0.14483353     0.21609516
     0.23083494     0.81607034     0.26254043
     0.93464242     0.68885079     0.21169214
     0.83049252     0.36685569     0.32913613
     0.68829582     0.56637082     0.63568011
     0.55120719     0.35503929     0.72476743
     0.20081645     0.11617400     0.20923511
     0.91873243     0.82785316     0.18470829
     0.21977850     0.48122821     0.44692269
     0.67195797     0.28086877     0.44437289
     0.82871918     0.98397546     0.15516878
     0.27557077     0.63332615     0.48169257
     0.14697660     0.92282169     0.17190309
     0.32987509     0.08364398     0.23547088
     0.96653760     0.81506456     0.16624632
     0.18723139     0.77082935     0.26585702
     0.90646760     0.99522147     0.13185271
     0.44767481     0.90873356     0.27168465
     0.07903683     0.17368774     0.18055669
     0.64190482     0.27332416     0.46445422
     0.95417855     0.43848596     0.22710801
     0.74633157     0.06639445     0.20047833
     0.67122271     0.25066567     0.40491301
     0.55297009     0.67533266     0.67282977
     0.91786140     0.45027327     0.25775930
     0.03252252     0.80085707     0.16993176
     0.27067477     0.39040136     0.49409093
     0.47969110     0.55065890     0.96905204
     0.27908900     0.66389652     0.45291450
     0.23812929     0.38412401     0.43330848
     0.15206667     0.68347975     0.29359681
     0.48456216     0.57977431     0.92811029
     0.62708659     0.83618937     0.31543894
     0.95368120     0.92317565     0.14031738
     0.06541212     0.03184338     0.13321124
     0.33336611     0.30089189     0.47780360
     0.76040206     0.33258819     0.39398841
     0.22847288     0.87129291     0.22866126
     0.05910797     0.49551811     0.24256917
     0.24849478     0.42193519     0.47900026
     0.14110515     0.93726911     0.16377483
     0.03412591     0.80456683     0.16934901
     0.07236897     0.67029901     0.24051089
     0.08539301     0.75281155     0.21682492
     0.00545558     0.30378629     0.18059870
     0.44085976     0.39199958     0.80753850
     0.56461867     0.01782666     0.21276018
     0.17106633     0.69342644     0.30344848
     0.82530974     0.30248542     0.30225688
     0.08884723     0.25965720     0.21719088
     0.75677725     0.51453780     0.50245857
     0.15785673     0.30324531     0.28708015
     0.58064634     0.20762857     0.40573010
     0.13446785     0.44581424     0.31435223
     0.31260044     0.96061797     0.20241600
     0.42504721     0.76328031     0.46229423
     0.28642005     0.89393741     0.23825072
     0.02403303     0.28726882     0.18637755
     0.60248762     0.54412717     0.85813309
     0.05679469     0.24919730     0.19453665
     0.51563277     0.53083229     0.98904511
     0.24954075     0.65750097     0.41566673
     0.53766165     0.09208180     0.27065779
     0.11794205     0.33936771     0.26658691
     0.66349560     0.78157137     0.35204061
     0.09409586     0.00734971     0.13394395
     0.04804809     0.71183830     0.21215020
     0.45050570     0.99396985     0.20255196
     0.90147767     0.30446638     0.24137236
     0.40891979     0.64545634     0.70800156
     0.90709931     0.91513082     0.16017483
     0.11330766     0.68673414     0.26309394
     0.79663710     0.47047163     0.41898194
     0.28465776     0.50392788     0.58705793
     0.61443489     0.80656216     0.35660462
     0.32282345     0.06705316     0.22218245
     0.48608401     0.61333334     0.85952852
     0.62007399     0.88826792     0.26927966
     0.49745486     0.10279097     0.28350207
     0.52203901     0.29608213     0.60209118
     0.21603359     0.48152544     0.44008172
     0.15949896     0.25456248     0.26455664
     0.42949859     0.23511855     0.45876769
     0.21443808     0.88857228     0.21320667
     0.63098054     0.53847805     0.79873425
     0.46437834     0.47082507     0.96700629
     0.84866425     0.69592810     0.26581468
     0.66041112     0.94345729     0.21701156
     0.54625904     0.54907884     0.94791558
     0.84694137     0.60377233     0.31334682
     0.57819501     0.43119418     0.85439336
     0.85314160     0.14670118     0.20027423
     0.68247265     0.40563627     0.60819613
     0.23975296     0.07322879     0.20011770
     0.33760346     0.12303826     0.26969952
     0.34434270     0.98740510     0.19362744
     0.41089424     0.43365898     0.84247760
     0.18743748     0.36155971     0.34815930
     0.20322420     0.71024744     0.31895057
     0.24623746     0.85644437     0.24539471
     0.30344701     0.24547739     0.37476152
     0.96091407     0.60195326     0.21587137
     0.57684746     0.14763987     0.32447649
     0.53128923     0.96313393     0.22496161
     0.30697973     0.50879668     0.64233534
     0.49129433     0.63027856     0.81983850
     0.19848687     0.07401785     0.18551721
     0.75352924     0.86877776     0.23462472
     0.70811367     0.99263392     0.17953562
     0.33221204     0.07221885     0.22806928
     0.62504812     0.31965052     0.56275750
     0.04106094     0.84183907     0.15978895
     0.15237810     0.62234167     0.31904246
     0.69157834     0.35272437     0.51873595
     0.60584147     0.62671996     0.71751567
     0.86700857     0.10435100     0.17421677
     0.58664777     0.83490835     0.33715095
     0.98623428     0.19395364     0.15544249
     0.70727474     0.35821900     0.50009742
     0.82160632     0.84362433     0.22021496
     0.04003822     0.64422696     0.22541201
     0.85165605     0.83238489     0.21241498
     0.10387470     0.87443837     0.17591371
     0.13388406     0.39664023     0.30175249
     0.43701173     0.35776610     0.72432625
     0.57087482     0.63383684     0.75697576
     0.62157741     0.04418291     0.22102899
     0.82085137     0.41833636     0.36319452
     0.10092331     0.01957330     0.13740947
     0.40407656     0.10035558     0.26873620
     0.60224673     0.98457084     0.20241364
     0.52324459     0.32104621     0.66029827
     0.73585941     0.40683708     0.50132419
     0.95426565     0.63772580     0.21265235
     0.85873875     0.24602289     0.24806676
     0.96896138     0.32930624     0.20091100
     0.55494422     0.66998285     0.68481211
     0.38124485     0.67820570     0.59427661
     0.17351932     0.78082627     0.25213866
     0.98555574     0.87661012     0.14146161
     0.45721705     0.43625190     0.91382720
     0.56390843     0.09418525     0.26937725
     0.60329899     0.61390976     0.74907033
     0.72524381     0.82984934     0.27014892
     0.78594027     0.23865875     0.29578433
     0.23591489     0.20915741     0.29049046
     0.17682476     0.23905056     0.26899091
     0.19369438     0.88494626     0.20717517
     0.21341191     0.64096854     0.38008735
     0.31078428     0.65567792     0.51652832
     0.11227170     0.43175219     0.28712399
     0.03165266     0.05458756     0.13183662
     0.37922070     0.55007756     0.80731075
     0.76343669     0.94983745     0.18807006
     0.17272399     0.26871631     0.28213195
     0.07175183     0.27391057     0.21072204
     0.67428388     0.47886228     0.69679481
     0.48540416     0.58552769     0.91786833