TITLE = " "
VARIABLES = "x" "y" "f"
ZONE T="lsample", I=   60, J=    1, K=    1, F=BLOCK
     4.90531397     1.44527623     1.92424284     3.49935313     1.29470103     1.87352097     2.35023005     2.98316413     0.95626812     3.66496201     0.43308642     4.30012027     1.62133256     3.40305516     0.06481431     2.41744881     4.06212540     3.89156861     4.59358859     0.19341266     4.68661466     2.76593329     2.29079093     3.57320783     3.07060216     0.77710162     2.58030366     0.41364641     4.48846769     2.17646234     1.05251281     3.74949121     1.53209423     3.99108495     1.24810236     3.18972878     1.77155656     0.88437332     0.66239673     4.98515878     4.14695924     0.69395444     4.54222028     3.76291885     4.79374317     2.60804861     2.72290109     3.13193334     3.32038136     2.14945501     2.05703914     0.15685489     4.34353105     1.39302445     1.14520647     2.90177002     1.71543999     0.31653997     4.17068911     0.52182523
     0.53001002     0.66179755     1.11474092     0.75071868     0.84554401     0.64155719     0.78507061     0.96508657     1.30999597     0.73552356     1.37775499     0.71147507     1.41142148     0.87747457     1.26515734     0.81607640     0.69613291     0.58919647     1.00838249     1.21778840     0.98630998     0.82854731     0.62789992     0.91395933     0.56450589     0.85052602     1.07416949     1.49994630     1.43080674     1.16879608     1.18912481     1.38734259     1.35032516     1.21492891     0.54346689     1.13135596     0.93288586     1.32925242     1.24536827     0.57120468     1.33705736     1.05640059     0.60797115     1.03780984     1.08670823     1.13863541     0.97865222     1.44117831     0.50044873     1.29172799     1.27236500     0.77183604     0.68163962     1.46715832     0.72988494     1.02626100     0.93523376     0.89054960     1.45041703     1.15895756
     0.00575471     0.00224319     0.10496618     0.04349663     0.05975383     0.00246594     0.03921647     0.12341547     0.09860354     0.03709893     0.09735378     0.03646329     0.09964327     0.12276630     0.09599610     0.06695330     0.02411265     0.00453004     0.13605064     0.09640148     0.13993670     0.08851389     0.00276926     0.13573032     0.00331521     0.05453193     0.11072631     0.09684193     0.11582816     0.10286854     0.09761041     0.11088658     0.10033775     0.11581023     0.00191726     0.11291625     0.11782539     0.09879394     0.09723764     0.00681558     0.11530945     0.10366373     0.00721955     0.12343577     0.13146863     0.10796957     0.11978834     0.10609590     0.00344551     0.10193376     0.10147350     0.00335875     0.02236607     0.09864564     0.00285299     0.11662666     0.11729957     0.09606479     0.11288477     0.09738429
