TITLE = " "
VARIABLES = "x" "y" "f"
ZONE T="lsample", I=   76, J=    1, K=    1, F=BLOCK
     2.78336066     3.16627469     0.38128359     2.24638613     4.74860154     1.19346990     3.71435334     3.32080373     0.24821901     0.04057359     1.52552048     0.54109636     3.81182472     2.83803159     1.03370791     4.97621952     4.07143873     1.69712965     0.17123114     2.09231859     4.21689658     1.40711992     4.59612637     1.37229432     2.96639519     2.12503404     2.35499147     1.06524436     1.71988981     2.37217533     0.46654241     1.63888645     0.09350834     3.04211587     3.90719072     1.83871827     3.53529255     1.28023991     2.58434234     4.12065643     1.46472962     2.51329898     3.45015684     1.85172574     3.40182872     3.28530134     4.80967010     3.09902985     4.67105289     4.60959289     2.63824082     4.33454963     0.70979996     2.89734864     2.71235512     0.89461696     0.43246080     3.82917610     4.19951066     1.17559011     3.60343899     2.47286812     0.63926825     4.51045323     4.42427143     2.01941913     1.95618736     0.79882942     0.72870890     4.38418153     0.92577225     2.21740722     0.26582133     3.64588041     4.93053228     3.96926095
     1.18163887     0.65971831     0.91199617     0.94589294     0.97793836     1.22325294     0.59380389     0.57516536     0.71212641     0.89286470     1.48231285     1.36359704     1.14648529     1.25460512     1.39822838     1.41909619     0.73643706     0.75815388     1.26599460     0.99232032     0.70397690     1.23971198     0.69451987     1.44019194     1.27955805     1.04533175     0.79857395     0.60604225     1.42314537     0.64637729     0.78146992     0.74382798     0.54322935     1.09510333     1.19122397     1.30919898     0.77300003     1.12728316     0.86644663     1.05275212     0.82859096     1.33881024     0.83099965     0.92692053     1.16120161     1.09185340     0.96435355     1.11376097     0.67795976     1.07500568     1.48889762     0.90228198     0.50855307     0.58046945     1.34470320     0.51883553     1.37132405     1.19855435     0.85303422     1.23568343     1.46038809     0.55843822     0.80268085     1.01231227     0.62974050     1.32483185     1.29103371     0.95623836     1.47182814     0.63404210     1.02977588     1.14064398     0.52701740     1.38406751     1.02259410     0.87064252
     0.10722544     0.00701954     0.11397889     0.11888405     0.14201057     0.09763814     0.00672108     0.00578838     0.00410687     0.08858692     0.09848840     0.09656868     0.11576098     0.10572153     0.09800936     0.11954624     0.04451013     0.01344706     0.09758509     0.11372562     0.03048689     0.09887090     0.03238219     0.09922277     0.10715309     0.10990647     0.04519372     0.00311265     0.10027324     0.00479286     0.00840391     0.00952741     0.00264110     0.11294325     0.11584269     0.10075836     0.05675373     0.10063216     0.09963771     0.12649154     0.04584169     0.10294467     0.10435475     0.11804815     0.11151386     0.11522265     0.14464641     0.11197008     0.02659373     0.13043580     0.10223565     0.14152806     0.00274714     0.00507709     0.10395031     0.00282660     0.09655365     0.11433307     0.13942009     0.09812970     0.10851295     0.00434072     0.01541623     0.13493819     0.01090411     0.10080801     0.10191278     0.11093497     0.09728392     0.01118153     0.10574265     0.10397952     0.00264315     0.10913093     0.13948774     0.13742244
