 VARIABLES = "X" "Y" "RO" "U" "V" "P" "M"
 ZONE T="  0.000000000000000E+000 " N=        2335  E=        4433
 ZONETYPE=FETRIANGLE DATAPACKING=BLOCK
 VARLOCATION=([3-7]=CELLCENTERED)
  0.992800182741508       0.986955312035193       0.980498804191580       0.973364178196024       0.965478115320818       0.956759070509642       0.947115233396283       0.936724532795517       0.925783334395569       0.914259237946055       0.902117776260640       0.889322470886171       0.875834999451442       0.861614686311997       0.846617887747631       0.830798712148378     
  0.814108562654306       0.796495495983221       0.777904589342139       0.758277498682611       0.737552772872601       0.717382722827638       0.698167802705838       0.679866904872572       0.662440813330073       0.645852515134205       0.630066804166730       0.615050118608462       0.600770669320440       0.587197574203930       0.574301237163944       0.562053207676007     
  0.550425800461025       0.539391970114383       0.529217469518356       0.520067300327150       0.511841076703074       0.504447376476603       0.497803513827875       0.491834348007877       0.486471785322602       0.481023873127201       0.475473514994556       0.469819883738418       0.464062018961961       0.458198372484564       0.452227101164669       0.446145863132176     
  0.439951889738963       0.433641984846190       0.427212616762231       0.420659962398007       0.413980045466442       0.407168820580730       0.400222178987809       0.393136157229151       0.385906695015103       0.378530204446649       0.371002254376443       0.363319535697645       0.355478502528478       0.347474899140785       0.339305433372981       0.330966065571733     
  0.322452803834420       0.313761847197469       0.304888718570964       0.295829099019968       0.286578732358792       0.277132758130234       0.267486833295236       0.257636567808624       0.247576772010894       0.237303310970564       0.226918641570498       0.216741698143507       0.206768856315439       0.196998158423760       0.187427955988922       0.178054443516007     
  0.168873119981448       0.159883336564663       0.151084366761079       0.142475982050068       0.134056062050872       0.125817675952910       0.117761653399476       0.109889866422765       0.102203980372791       9.469638403006610E-002  8.736529550033278E-002  8.021610164827371E-002  7.325298434946378E-002  6.646485532487535E-002  5.985842088867217E-002  5.344678849126300E-002
  4.722106157107629E-002  4.119061385550384E-002  3.537137615171136E-002  2.975655306795780E-002  2.438311467206461E-002  1.924416427998492E-002  1.444796084257728E-002  1.002936330205997E-002  6.232932188499938E-003  3.202050151134682E-003  1.148089534963692E-003  8.484895932707581E-004  3.162769078689452E-003  6.943657352021221E-003  1.215778437441081E-002  1.869456015265106E-002
  2.634604558826967E-002  3.507784171469686E-002  4.493743830238996E-002  5.498422997294944E-002  6.512200406408748E-002  7.533631417188595E-002  8.559886091856822E-002  9.590904811612248E-002  0.106254044410729       0.116628692104388       0.127031884953942       0.137457170442307       0.147900168395389       0.158359297114901       0.168831022313594       0.179311846306939     
  0.189799075790347       0.200290779737239       0.210784598885721       0.221279020977094       0.231773036757381       0.242266035955438       0.252757170653009       0.263245284206379       0.273730069730128       0.284211529553721       0.294690063564063       0.305165728223707       0.315637550764808       0.326105229748360       0.336568857920681       0.347028525177303     
  0.357484819429597       0.367937930318802       0.378387507261702       0.388832822658279       0.399274046875052       0.409711461427402       0.420145345692620       0.430576179252109       0.441003542422924       0.451427006225160       0.461846830761388       0.472263177101168       0.482676154287168       0.493085344029940       0.503490941608508       0.513893543454716     
  0.524293138197305       0.534689616080911       0.545083086148202       0.555473692332108       0.565860993568770       0.576244656379704       0.586625624216483       0.597004026758097       0.607379484200745       0.617752502495627       0.628123730782281       0.638491866473551       0.648857838735172       0.659221646854448       0.669583383450113       0.679943236610430     
  0.690301410102998       0.700658421899180       0.711014787119552       0.721370907597734       0.731727561343871       0.742085623975723       0.752446169889768       0.762810467272324       0.773180374944289       0.783557768831293       0.793945147564916       0.804345406621482       0.814762032824587       0.825198709638460       0.835659702609539       0.846149624240203     
  0.856673072066190       0.867235234970514       0.877841111609837       0.888495894462555       0.899203947363526       0.909968996475014       0.920793504049151       0.931679096805782       0.942625668973169       0.953631135402211       0.964690172731417       0.975795486584905       0.986934321451480       0.998092810380154        10.3004800000000        9.70989700000000     
   8.75177100000000        7.46426000000000        5.89863100000000        4.11723600000000        2.19103800000000       0.196810700000000       -1.78589700000000       -3.67789800000000       -5.40348300000000       -6.89339200000000       -8.08753700000000       -8.93736500000000       -9.40778000000000       -9.47857100000000       -9.14527300000000       -8.41946000000000     
  -7.32845700000000       -5.91447300000000       -4.23320000000000       -2.35185600000000      -0.346770100000000        1.69947500000000        3.70124200000000        5.57335500000000        7.23478100000000        8.61234000000000        9.64426800000000        10.2834400000000        10.5000000000000       0.840518352084113       0.525244418914256       0.603012895912330     
  0.897285719132200       0.870411489528504       0.943253372735539       0.921474731340255       0.415328441270955       0.949586545412958       0.519753327268051       0.996364981787869       0.639301034507559       0.984614595898241       0.467254311062322       0.970482136755690       9.110845697719095E-003  0.953200602754902       0.389771022459211       0.359594598950796     
  0.374997005352133       0.410853085318762       0.343553171886850       0.120802117798239       0.437096235203258       0.472961234369411       0.326825917833796       0.569083287663150       0.309385172091979       0.655597814952134       0.291196538527944       0.789198184346283       0.272222646238518       0.977899636300360       0.252419230787856       0.300387296248589     
  0.231798744002255       0.221464853565548       0.211340795718292       0.182145090169615       0.191674848869623       0.163686189921198       0.172824504434567       0.137376042948819       0.154730303389037       4.228694320250048E-002  1.929412084014491E-002  3.621932089587705E-002  4.497787967584175E-003  2.470597669120315E-002  3.038133586955290E-002  6.027113632727418E-004
  0.367375706039196       0.201411032959300       0.318196797986534       0.242194162257233       0.281812038114941       0.262423620360930       0.351659337858819       0.335276807863660       0.884203727389798       0.382452282735273       0.990684552252315       0.962283855483948       0.909697609285308       0.932651178376660       0.824327652478639       0.855864008583156     
 -2.399926070713624E-003  0.495177604703664       0.545675866503579       0.770144496176260       0.690709462343497       0.729437084045472       0.595046520459520       0.623800069329280       0.484063882018307       0.508607618253548       0.449492450400913       0.461441860542359       9.725388677194242E-002  0.424226219301253       0.516481785729734       0.417604539620838     
  4.853599763574962E-002  7.530369875873717E-002  8.977824288020328E-002  0.104907787916550       1.401810457587783E-002  6.158066823779570E-002  8.245743552010550E-002  6.836403187908786E-002  0.478563741163143       0.112769050271925       0.749974029262305       0.489479268670511       0.396940862039072       0.129003012862583       0.557077488700840       0.443351425395090     
  0.501532844443793       0.609059923897047       0.534991056573382       0.672721858249849      -4.103380566377924E-003  0.478034293224281       5.727826428717195E-002  0.183787801791074       0.488473272513079       0.394388497362788       0.960653605081739       0.789862839184332       1.118628783552696E-002  0.509331711365457       0.993945561574095       0.916750911575676     
  0.810700462763665       0.982943315720198       0.927635481788888       0.457150093304928       0.436243741214346       0.686068971934024       0.665317297693088       0.727558968491011       0.706814786954259       0.769071594248993       0.748307545287423       0.852632429765880       0.831611393224228       0.895162430067753       0.873803346047251       0.863196604841682     
  0.905926201211977       0.938580544971651       0.842105696893802       0.884456419168088       0.737932043891226       0.821144744946038       0.779463029421713       0.800274084190292       0.717186659330074       0.758687086436662       0.613402506085630       0.696442204291744       0.634175929886163       0.675694198684926       0.644558460434664       0.654938802674894     
  0.592616645287044       0.623786474873073       0.173229881837862       0.582220025000091       0.540588447703785       0.561411412375198       0.571820221564423       0.530172991398416       0.551000700548441       0.152071535542286       0.162656588761723       9.932173167058679E-002  0.141489791239973       1.623831968655827E-005  6.780507236426826E-002  0.120405850704711     
  0.130955183829596       8.881130729718895E-002  0.109838986679082       1.854843329681951E-002  7.827268428119628E-002  0.194361459852798       2.695519108982496E-002  4.831038833710227E-003  0.709603862229450      -3.104254532012009E-003  0.430722428752650       4.682661867270963E-002  3.649346893732446E-002  0.257750814355120       0.226089678882994       0.215526159497857     
  0.204949472960830       0.247189743463558       0.236639064947834       0.310408974173727       0.268301030950201       0.289367879947010       0.278840073446177       0.320931756761858       0.299885014135885       0.331445384868285       0.352445601096120       0.373418407046647       0.404862240554171       0.446699829142087       0.467594626283205       0.425787047365717     
  0.383907202751154       0.362932692267554       0.807239447884070       0.341949929606733       5.494986462520839E-002  0.971770932752703       0.498906065184140       0.581729554732104       0.455521950658890       0.145957160311414       0.403965855833300       0.801597849648842       0.665060009249555      -2.186062403291660E-003  0.393801861623081       0.158150080912173     
  0.851177715266391       0.215721864959616       0.131939512227500      -8.988975684482573E-003  7.862337820687139E-003  0.906010968822974       4.305937367797603E-002  0.512245309005820       0.226095890224509       2.664770651718944E-003  0.140455201813613       0.123562406168203       0.540306413710042       0.950465276247580       0.363900517730589      -6.166386805203131E-003
  0.389525091192415       0.956816343020230       9.320248969676979E-003  0.945732720677823        1.00373841223455       0.378992518320545       0.785963405184068       0.661206859048413       0.912881564956524       0.934719181278953       0.902056842327206       0.577944595647192       0.410554905164383       0.515316275652297       0.650809687708009       0.400044847005509     
  0.294552955540927       0.775547333907203       2.669552850147869E-002  4.852722301473336E-002  2.224403423164814E-003  0.188221846334041       5.946868872625456E-002  0.598781163840226       0.326290000850027       0.315711843527204       1.334519226179455E-002   1.00522763744749       0.682719359512762       0.866001718921041       0.440709190318061       0.917999768102977     
  0.923773566406931       0.575835290800096       0.379164357024196       0.371618917291244       0.386558417913098       0.414708332574139       0.421396794669743       0.481797982371398       0.648252495123302       0.701272816235520       0.783184223207570       0.976236088846079       0.983113399308487       0.296011892349490       0.305140776957517       0.186028276136638     
  0.167262342908486       0.176545806324957       0.149210544329202       1.894197513424186E-002  3.671153325553249E-002  2.467937566848559E-002  3.060797915346467E-002  0.195731329285125       0.205634483693847       0.314077399170415       0.322825912582124       0.236731046788575       0.247254658839320       0.277156595947709       0.286687480781270       0.257457184958336     
  0.267412047656638       0.347991982025633       0.356027911684816       0.331393184119802       0.339780033235562       0.880052300166246       0.893373908320007       0.529862068386600       0.991435526341261       0.960134854991028       0.968639496506375       0.929373194676926       0.940220670379945       0.819028899946162       0.835536866938335       0.720881070564662     
  0.588879359843111       0.602613736308614       0.617064261111269       0.632264644196266       0.498090895607439       0.470596230764402       0.446908306847534       0.452994077511683       0.458969711997835       0.464836242146860       5.614579108072249E-002  0.427958085231771       0.520548417583251       4.949766363961907E-002  7.705973320740606E-002  8.439869181699569E-002
  9.187510098666221E-002  9.950397372911152E-002  6.297214630973910E-002  6.991980113084255E-002  0.107340907175116       0.115375005532999       0.741876032472029       0.763247088161329       0.492257913809192       0.487072327103082       0.551618687806178       0.563454360329905       0.476250501180257       0.504788007718638       0.483942642468905       0.473472474214488     
  1.746051447273970E-002  0.891295445647923       0.765140918185878      -9.691235824157877E-003  0.848770759208958       0.991814373847376       0.462999221549285       0.452519562202084       0.442030744743275       0.723561742685543       0.681999262554460       0.671603333292591       0.640409623122744       0.713171966955728       0.754740931536431       0.838242622605582     
  0.880593146134380       0.869941446949594       0.859335566091389       0.744342738893937       0.733953967268288       0.827745386071422       0.817273897070971       0.806821521757651       0.796383057642155       0.609194901079045       0.702782248673483       0.692388511815582       0.630003269978976       0.619597446247093       0.177544749010720       0.166876312937104     
  0.588363536040852       0.567516754649702       0.536203501817472       0.525762882005678       0.557080064697303       0.546644016008074       0.156167065711075       0.145433574567530       0.134736970050751       9.185746985150747E-002 -3.710053461904038E-003  0.124054765561021       0.113311318323945       0.102571027227110       8.107830711199589E-002  7.029282522157493E-002
  0.252131698169456      -7.769538269069867E-003  0.434394760294814       3.741912749407338E-002  0.220248423648404       0.209587706665467       0.198898735493100       0.241498139199737       0.230879667277155       0.305127237625557       0.262767780118149       0.283978239642264       0.273383456779166       0.431540283458141       0.421050361514171       0.368460111028336     
  0.357933935572844       0.347400848314692       0.336853027004069       0.979165899322295       0.967957497035548       0.504867192052955       0.494410717137948       0.400923343447710       0.407884735701895       0.778722193061595       0.441442649563928       4.999741840251416E-002 -5.243582334996574E-003  0.289148874551053       0.181826169222517        1.00060323885269     
  0.374092563246452       0.305687292141872       0.394505850650529       0.656420487624911       0.161204572416877       0.230884053701953       0.569160254089095       0.815649325721106        1.00223499917488       0.364603599140739       0.487233250110251       0.476966999573422       6.238945285075370E-003  4.335103655174519E-002  0.959067391142565      -8.265422314162094E-003
  0.568584595942770       0.947624398083214       0.516228483881093       5.009235483277157E-002  0.246369867322961      -1.650679503875797E-002  0.257096368428122       0.652068169442627       0.797977580929659      -1.026654663969480E-002  0.863241985651052       3.862141056691582E-004  0.915868629144172       0.514760459308353       0.219891819907382       0.134504519338779     
  5.686992807262021E-002  0.125997225457024       0.544981361169173      -1.426485261819873E-002  6.059223444554598E-003  0.384679566878358       0.777052163342710       0.914637119530985       0.411096081994676       0.395262231106545       2.589304832261924E-002 -1.527281942909839E-003  0.631217698950320       0.321086179909362       0.673717329370227       0.931050696760082     
  0.323430452098982       0.379884487271871       0.422141259367715       0.494090139698100       0.691892543311239       0.711139959576064       0.170466547660591       0.179914794812769       0.143166739321515       0.152097944432327       1.216796382725162E-002  1.807065257532760E-002  3.677773339422966E-002  2.410314707797254E-002  3.030766923482881E-002  0.189576440202229     
  0.199458331883668       0.209524359034757       0.581899538196054       0.242050179168304       0.252671503458583       0.277579995934356       0.291892164929477       0.262837623665133       0.336271484217179       0.877467402924970       0.890952877679321       0.903738140624351       0.979661449012570       0.990106688880659       0.968467008289678       0.927371807188517     
  0.938366726227516       0.948829039819435       0.832383131007431       0.848226870402234       0.595321743725055       0.609453072134761       0.624321315871796       0.639966081960352       0.453721144645559       0.465558512093026       0.523464246138726       7.836780292490772E-002  8.587587588000548E-002  9.351154386987470E-002  6.387115471994058E-002  7.102580291372922E-002
  0.101322836480811       0.109351553492106       0.117549474869298       0.732411915050156       0.756165792074378       0.344590837961185       0.556963348534865       0.352732777986545       0.500085672467484       0.507026717027062       0.474249856084678       1.508700231649251E-002  0.892996413193380       0.756216018198709       0.453218664765418       0.724966929345397     
  0.672901224455803       0.850394877448092       0.871599829812043       0.740587731271927       0.829340061938579       0.808390580150945       0.792708376750128       0.610362937281584       0.704154932411191       0.688529893826956       0.170989368990344       0.589486220760627       0.531946409070659       0.547656552900766       0.160157457195215       0.149269457026535     
  0.138382352699648       0.127525008711232      -1.615583081205522E-002  0.116614940662207       0.105652725091145       9.468665156219527E-002  8.367477705754450E-002  7.258432550863815E-002  6.143933677442990E-002 -1.338855799525987E-002  0.431946736123429       0.533543532723626       3.827435688514284E-002  0.214198524519481       0.203407493804370       0.192620956595194     
  0.235654757069576       0.224944724134680       0.310434714582626       0.299786189542714       0.278495717999088       0.267813164288875       0.432161171019508       0.363512059909793       0.352934649354532       0.342340302988968       0.331725672019992       0.989083103231735       0.975609491013936       0.964343159295248       0.495259358943876       0.408631925794502     
   1.01371479151630       4.106029528850403E-003  0.796580393103305       0.580265855869320        1.01351392831855       0.941403527519512       0.969988731242467      -8.739775538690514E-003  1.965651041303339E-002 -2.500266879608019E-002   1.01205776047372       0.374487703810778       0.643109209903571       0.884177225301670       2.504547821728654E-002  3.895434872573060E-002
  0.823073633557855      -2.004941299759352E-002  4.652446906580558E-002  0.672054371560537       0.271184995110102       0.388373222358741       0.253265646604923       0.883582831220557       0.230311657806172       0.554950163571510      -2.364831410466470E-002  0.169612268387345       1.170829315119406E-003   1.00220582903669       0.682277694913813       0.697950927642826     
  0.443462697152463       0.245875392125214       0.289008688812590       0.774286840336037      -1.483920845308675E-002  0.504036449757352       0.168570027354929       0.331029831101902        1.00120654732000       0.492076075922513      -2.476818401880199E-003 -1.435864000175937E-002  5.730685768624890E-002 -2.037090869379810E-002 -2.406475837844611E-002  0.520083997717901     
  6.067367286254381E-002  0.905734695104125       0.750123833144381       0.525195821108431       0.390451295573877      -7.337374805421395E-003  0.924821019045888       0.132450281909139       0.150035361692784       1.027585858293478E-002  3.294275295375243E-002  0.187825842541142       0.207959913139065       0.710196926529703       0.373479361618522       0.909284977755262     
  0.990123094860920       0.980261755058025       0.932454142809798       0.953754314164274       0.854969857450335       0.315705002926996       0.607792013338977       0.299891338288210       0.285773229598246       0.638297222715008       0.482958973823007       0.448742546950065       0.460780267069759       8.306037892165094E-002  7.165884284212840E-002  9.871915994107627E-002
  0.115163994515983       0.746634721131921       0.345647325033585       0.359896511505389       0.472388095284527       1.153358692581675E-002  0.862853524373579       0.464602139692706       0.664002031852864       0.768387628512366       0.734460120867261       0.841708287380742       0.820693805580023       0.802359387094835       0.786662310370724       0.716207546244136     
  0.622203659141191       0.601284102782961       0.580335187824060       0.559354917455441       0.540977384086735       0.147511818631507       0.125352291524832       0.102991417936879       8.037007177728044E-002  0.437877624856514       0.428246955013171       0.536051829243306       0.202474426973767       0.186211717335696       0.224238105227990       0.310446646717838     
  0.267504065958759       0.422307593392134       0.403781038729951       0.353215586539020       0.331879823632708       0.985853999120168       0.972074043236532       0.958140086125296       0.506784977654502       0.485712536835792       0.402760465894576       0.416615554903108       0.433743365828081       0.917403465812530       0.195166702921096       0.564046636555834     
 -3.445664969595721E-002 -1.544010212161419E-002  0.935324818261675       0.490138536523475       0.897049328366862       0.534450532872700       0.321273519545655       1.407770432607028E-003  0.879622645587644       0.766840746557691       0.434871496325747        1.01158202555046       0.216619709596175       0.993678608938885       0.798334897636032       0.479163264537434     
 -2.009149744068360E-002 -1.308345143538904E-002  0.984301706541327       7.487487914164765E-003  0.974883582966157       8.819532907261651E-002  2.438899006878382E-002  0.650614197584896       0.634375131839204       0.176434451666420       0.875596560144046        1.02499683964425      -5.987484533983355E-003   1.02413968480086       4.286722134695783E-002 -3.153670999538907E-002
  9.078200807649319E-003  0.103248871350897       0.468269989818495      -5.305669265970181E-003   1.00323148315561       0.692002105663952       0.517262548847639      -2.646394452204021E-002  0.551611603152865       0.341473927163997       0.353482673539711        1.00200949485019      -2.267022290247382E-002 -2.888714323018907E-002 -3.346585302094095E-002 -3.507698912801412E-002
  7.339352428647668E-002  0.138012931400929       0.156363684802279       2.098799254493535E-002  3.515316207370148E-002  0.175321763219875       0.262768982127518       0.242837646200098       0.120699327232913       0.905775407457835       0.969332812993014       0.929260631107121       0.950513028037724       0.823079962651920       0.850474460306266       0.521641370108409     
  0.325287969458600       0.589894974920358       0.309714677969697       0.294695716477463       0.618691511518312       0.280295697669171       0.505995997035099       0.456483252360934       4.917307048696439E-002  6.189360488398139E-002  8.704086524922378E-002  0.685719271251433       0.724861322048319       0.541175995624585       0.368640844632861       0.854368668446008     
  0.455005776540290       0.674970218829288       0.655338175777323       0.761309438403550       0.744305662222919       0.833297389676952       0.813631578025617       0.796604631453594       0.779597097885108       0.727305573468794       0.709018693480409       0.613397625956373       0.592396115079904       0.571355058416147       0.156644735084842       0.133973654946093     
  0.111300810137313       6.467839532763964E-002  0.445076681705605       0.397308859182846       0.382816655569624       0.193094225089440       0.234281203679060       0.212382479351180       0.299610797392095       0.278023895724993       0.256183321621152       0.389436734060710       0.413795116060019       0.364265616231989       0.342859905638585       0.952122264931833     
  0.497439350616499       0.476243091804835       0.411555432154654       0.424286328052979        1.01731937661407      -4.483868823449159E-002   1.02064746918196       0.888585796370101       0.846183558980686       0.343831149243568       0.988749027755102        1.00119917249086       0.201950642778037       0.310444057608304        1.00309052843800       0.363177779556279     
  0.479913024775537       0.228809614342405       7.862816271178675E-003  0.930238383404577       0.906847693194344       0.107211984471098       0.437484520601699       0.378671830330497       0.867284554546815       3.776910424427501E-003  4.843935802812921E-002  0.937400877984918       0.424727091474104       0.183380320428929       0.254512764001927      -4.711996256976068E-002
 -2.575795809626469E-002  0.909506880089826       0.625895808743632       0.332325182815192       0.658891643773433       0.799359346015496      -2.620342515764423E-002  7.191362370825820E-002  2.599261031653738E-002  0.273599649848779        1.02564671603572        1.00811803026736      -1.849130232344789E-002   1.03793424859536      -5.890023356887071E-003 -1.332715441240826E-002
  0.536061935631733       0.508818980518004      -4.040639662814816E-002 -3.390126663084003E-002  0.297886583246989      -3.402195510938646E-002 -4.000814311659003E-002 -4.479060912283588E-002 -4.710813404859042E-002  0.142792669430690       0.125205246598626       2.177841049579214E-002  0.161616613318826       0.181110997675561       0.969986621439971       0.951271882557468     
  0.826598363056301       0.880757446604482       0.854538691009711       0.453370242732116       0.569934082602709       0.596535755191582       0.320567592315089       0.626373940161596       0.504371415387822       0.464892374043948       3.628516223765477E-002  4.972079946580082E-002  6.210162321152191E-002  7.490958219182822E-002  8.992654678752034E-002  0.745496347527793     
  0.696389098073389       0.545529696374149       0.392699117092077       0.445459381477406       0.694239309238366       0.667323766917467       0.646949030707438       0.764054388055214       0.825841807203389       0.799028027932190       0.738178779489582       0.720466557463708       0.604833331268205       0.583723898014538       0.563234085899641       0.164453670850062     
  0.142652417174938       0.119425471657130       9.594884436842741E-002  0.222309253019428       0.201473078181032       0.288620972735894       0.266680105906004       0.244485710700887       0.401089406757987       0.377259525067275       0.353996307329192       0.968167840290412       0.488194182763509       0.466843303771045       0.407136902687192       0.420726693232681     
  0.522494079314920       0.412913490488620        1.02223259409752      -5.662043669727234E-002  0.546308497863604      -4.259258637137110E-002 -6.037699565424455E-002   1.02066163572987       0.848997888490893       0.267303790564168      -3.852324863083586E-002  0.890881447396180       0.711561146702601      -2.192549315965859E-002  0.975107531892870       0.957532087388237     
   1.03695948374881       6.126548373545988E-003 -6.206453056835997E-002  0.662516711214888       0.299427402115473        1.03391736680213       0.914607410422270       0.783313397306214       0.495890544557383       0.110253947009623       9.163222439084466E-002  0.731873719490382       0.996222038489398       0.181582194700210       0.433195260658939       0.815225301624299     
  0.524244049224447       0.374751390137940        1.01085434401046       0.211892936692909       0.242515727484938       0.994790449970667       2.157304550498434E-003 -5.057777755698457E-002  0.321547690555418       0.449327670553775       5.440272803964882E-002  2.980850402502842E-002   1.01965162424174      -3.372004868513147E-002   1.03956051758508      -9.104868122933929E-003
 -2.156453658849856E-002  0.617715355460786       0.489589334662569      -4.860367942184182E-002 -5.477530862525120E-002 -5.970341606101424E-002 -6.221733988565128E-002  0.128127553748108       0.146053349764317       0.165309592478646       0.185608270843572       0.937243227023791       0.850133680204032       0.890981241801694       0.628197257250679       0.357453659295376     