 VARIABLES = "X" "Y" "RO" "U" "V" "P" "M"
 ZONE T="  0.000000000000000E+000 " N=        2335  E=        4433
 ZONETYPE=FETRIANGLE DATAPACKING=BLOCK
 VARLOCATION=([3-7]=CELLCENTERED)
  0.992451672412780       0.986604214352566       0.980144932252016       0.973007354042479       0.965118116061017       0.956395628003441       0.946748083282706       0.936353483593564       0.925408283692003       0.913880099810844       0.901734484623361       0.888934970331852       0.875443233133130       0.861218600585705       0.846217453080751       0.830393910783648     
  0.813699388803757       0.796081970005873       0.777486768952301       0.757855486629718       0.737126717072217       0.716953105885174       0.697735137465029       0.679431643748332       0.662003355832229       0.645413233724727       0.629626044419227       0.614608176548081       0.600327806032828       0.586754033644311       0.573857244628940       0.561608947374271     
  0.549981429717303       0.538947640101826       0.528773315591440       0.519623426980356       0.511397544166547       0.504004221516929       0.497360759517710       0.491392005834467       0.486029857588926       0.480582410892273       0.475032573743112       0.469379516787118       0.463622283306924       0.457759330006527       0.451788819138730       0.445708414458534     
  0.439515350714018       0.433206432871761       0.426778136037854       0.420226644740103       0.413547985713142       0.406738119299046       0.399792954385844       0.392708531650635       0.385480812652989       0.378106237532615       0.370580295131872       0.362899763419255       0.355061119492928       0.347060068967863       0.338893364693247       0.330556981949662     
  0.322046947914652       0.313359479869904       0.304490121212208       0.295434569811747       0.286188600443731       0.276747357263798       0.267106546773769       0.257261833094938       0.247208020009985       0.236941040198535       0.226563365666639       0.216393665419969       0.206428305127164       0.196665383526372       0.187103300556707       0.177738198917547     
  0.168565482800411       0.159584568947467       0.150794789671500       0.142195966266661       0.133785959673541       0.125557672630314       0.117512024233573       0.109650988116008       0.101976313281663       9.448022218795686E-002  8.716093146310902E-002  8.002398835602362E-002  7.307368012681234E-002  6.629869666949612E-002  5.970589212690908E-002  5.330860392549217E-002
  4.709775683471714E-002  4.108285151690953E-002  3.528000396138907E-002  2.968226582518740E-002  2.432698836637907E-002  1.920708877423267E-002  1.443173413460321E-002  1.003575488151732E-002  6.264886105508147E-003  3.262320580916278E-003  1.239049861300806E-003  9.718660179557997E-004  3.317904967972893E-003  7.129358488846455E-003  1.237121092665818E-002  1.893198874236989E-002
  2.660503459269584E-002  3.535667970573533E-002  4.523462095292211E-002  5.529680011883783E-002  6.544760823443722E-002  7.567269759410117E-002  8.594453408110661E-002  9.626236786562803E-002  0.106613822467133       0.116993900970900       0.127401363636443       0.137830042264039       0.148275777139739       0.158736788274181       0.169209617609950       0.179690916528109     
  0.190178140977437       0.200669296744243       0.211161950316900       0.221654675805150       0.232146550464030       0.242637050346814       0.253125306152610       0.263610078219314       0.274091111378961       0.284568460406413       0.295042577325608       0.305513567037747       0.315980389722760       0.326442726474516       0.336900704214170       0.347354446764552     
  0.357804575671711       0.368251314458037       0.378694299513126       0.389132757472951       0.399566882204348       0.409996979667017       0.420423353496914       0.430846507503698       0.441266011684411       0.451681417224683       0.462092998104915       0.472500929380531       0.482905329562505       0.493305761455188       0.503702437293918       0.514095979177869     
  0.524486383455590       0.534873530841526       0.545257539846650       0.555638558194578       0.566016132644904       0.576389918177183       0.586760896628085       0.597129200229595       0.607494433613466       0.617857129248875       0.628217957812176       0.638575564561317       0.648930907099485       0.659283984652100       0.669634889172906       0.679983807667720     
  0.690330944183153       0.700676818130706       0.711021945823558       0.721366729158276       0.731711944043060       0.742058463761927       0.752407360223434       0.762759898538604       0.773117933495428       0.783483338471853       0.793858611378960       0.804246646602327       0.814650928979079       0.825075139647136       0.835523540126407       0.846000734190588     
  0.856511309347167       0.867060443555178       0.877653125444092       0.888294545587703       0.898989054914465       0.909740363553482       0.920550921170327       0.931422356419887       0.942354571760512       0.953345492545220       0.964389777245197       0.975480142437003       0.986603752481180       0.997746703105824        10.3004800000000        9.70989700000000     
   8.75177100000000        7.46426000000000        5.89863100000000        4.11723600000000        2.19103800000000       0.196810700000000       -1.78589700000000       -3.67789800000000       -5.40348300000000       -6.89339200000000       -8.08753700000000       -8.93736500000000       -9.40778000000000       -9.47857100000000       -9.14527300000000       -8.41946000000000     
  -7.32845700000000       -5.91447300000000       -4.23320000000000       -2.35185600000000      -0.346770100000000        1.69947500000000        3.70124200000000        5.57335500000000        7.23478100000000        8.61234000000000        9.64426800000000        10.2834400000000        10.5000000000000       0.840117392936666       0.524800956396865       0.603132472385959     
  0.896901606731905       0.870019034656947       0.942885182077532       0.921098721675139       0.415609471861779       0.949310236584631       0.519950498218844       0.996016810272462       0.638861827820256       0.984262272878921       0.466814450108660       0.970124344108779       9.107484001473690E-003  0.952836167507157       0.389344584988951       0.359176444713257     
  0.374574393401368       0.410421960416697       0.343140195990053       0.120550017577943       0.436660421604319       0.472520769348208       0.326418939824138       0.568639857487225       0.308985258597946       0.655160290179966       0.290804939006856       0.788784431155061       0.271840697759882       0.977544680549123       0.252048682930037       0.299991367802071     
  0.231441673308185       0.221115161090483       0.210998644037989       0.181827033840750       0.191348490473059       0.163385481213964       0.172514989396338       0.137103601485457       0.154438697698457       4.217444738629816E-002  1.924987707206917E-002  3.612282670945226E-002  4.518137039363897E-003  2.464355671268774E-002  3.030142208589211E-002  6.487282331645419E-004
  0.366955235036222       0.201076641469584       0.317793203429752       0.241830061653653       0.281425085918460       0.262047142508041       0.351243683669373       0.334866713598375       0.883815470529544       0.382027686709177       0.990334503141377       0.961922923766359       0.909317581485628       0.932279115697923       0.823922420695580       0.855467313892145     
 -2.326671074558220E-003  0.494735383217717       0.545232162566782       0.769726457230357       0.690276445786540       0.729010541975443       0.594604065374938       0.623359504963242       0.483622404757634       0.508164710986354       0.449054798661114       0.461002667536688       9.703488507525060E-002  0.423792568232809       0.516038574559728       0.417172097294783     
  4.840828011528732E-002  7.512107146643636E-002  8.957093281124145E-002  0.104677420576258       1.399363825057764E-002  6.142436187495413E-002  8.226223772818335E-002  6.819431700112327E-002  0.478122735607862       0.112527624922664       0.749551625541533       0.489037397840245       0.396512730694158       0.128740580240859       0.556633845791244       0.442914654325615     
  0.501090273145743       0.608618286856296       0.534547420894580       0.672286381430627      -4.000236747447478E-003  0.478267012750808       5.759114464716163E-002  0.184164337213063       0.488697322630999       0.394683999647425       0.960363456833898       0.789782329653534       1.140235430400014E-002  0.509537963619930       0.993615187256879       0.916516169630551     
  0.810595617958763       0.982625515466567       0.927386944214386       0.457399637463106       0.436509411226543       0.686103573354146       0.665373722456834       0.727548806112063       0.706827204326632       0.769014955558945       0.748274312338291       0.852477323815496       0.831481686526718       0.894954784259601       0.873622272916568       0.863028590115131     
  0.905705058515854       0.938318078741863       0.841963357409180       0.884262135019118       0.737910394351547       0.821027539729312       0.779394536232198       0.800181441458799       0.717187830736928       0.758642214462078       0.613511817318187       0.696465741044341       0.634264398096628       0.675739782807419       0.644636344065994       0.655005999805782     
  0.592746380700428       0.623885422851343       0.173606069301373       0.582359800189843       0.540767011703894       0.561570897521561       0.571969916667270       0.530360910987181       0.551169814143486       0.152445106973887       0.163031822544144       9.967416952698933E-002  0.141860913908182       1.796106887950743E-004  6.813062176234087E-002  0.120769631623509     
  0.131323068462898       8.915630859155033E-002  0.110197641105070       1.878692439228671E-002  7.860876423317924E-002  0.194737803377624       2.721454328260281E-002  5.021833306466518E-003  0.709173788280197      -2.968915914420302E-003  0.430287657627998       4.712432313301384E-002  3.677289417025208E-002  0.258115480418405       0.226462231280277       0.215900485880408     
  0.205325078728865       0.247557458287620       0.237009405088497       0.310752869699980       0.268662236109646       0.289721065963184       0.279197439137157       0.321270529828305       0.300233711795359       0.331778728483529       0.352767265744194       0.373727465347990       0.405150616983668       0.446957527050094       0.467835842805392       0.426060499347795     
  0.384209611470547       0.363248163000931       0.806829950710213       0.342277561042269       5.480760068977239E-002  0.971466936074682       0.499121284556543       0.581286511147596       0.455083492677452       0.145674981592870       0.403536165188382       0.801188282982360       0.664624467055473      -2.153679362235066E-003  0.393374904347885       0.157856640592445     
  0.850780589347581       0.215378229184562       0.131674851778565      -8.904446475020389E-003  7.849218660993109E-003  0.905630175602925       4.294206969256523E-002  0.511802754551570       0.225744549489461       2.673207670606620E-003  0.140180709625173       0.123308007499382       0.539863447310964       0.950099761753836       0.363481658912511      -6.109074085740677E-003
  0.389823109965971       0.956536294032358       9.539040266432281E-003  0.945465299841411        1.00340290926406       0.379297178502947       0.785889120448499       0.661268052013910       0.912654468507408       0.934465073608838       0.901843132594945       0.578088784074839       0.410838892262634       0.515517193219883       0.650881674754961       0.400335830224197     
  0.294902213247845       0.775484672894829       2.695613930986463E-002  4.882625970157935E-002  2.420366822990644E-003  0.188595498932965       5.978229609038093E-002  0.598905274295842       0.326624551145842       0.316051609657450       1.331222156386124E-002   1.00488344250323       0.682286118807613       0.865608741940897       0.440273152263186       0.917622908724861     
  0.923533452188051       0.575392848781053       0.378741123520587       0.371197806296331       0.386133264379845       0.414276826994949       0.420964009162803       0.481356960075326       0.647815052526976       0.700842348123564       0.782770502097371       0.975880097177746       0.982759779279037       0.295618841835100       0.304743500791490       0.185708650998673     
  0.166959893470740       0.176234643580023       0.148926428512049       1.889068381504410E-002  3.660992300898598E-002  2.461069659999128E-002  3.052253711809532E-002  0.195403463945848       0.205298621617669       0.313676230746786       0.322421120497240       0.236372118837754       0.246888729385402       0.276773038309371       0.286299185958597       0.257084976329560     
  0.267033852107310       0.347578237348352       0.355611506243999       0.330985199091455       0.339369011867017       0.879663438196061       0.892989110679614       0.529419157433562       0.991084854960210       0.959772979731417       0.968280863031058       0.929000190220842       0.939851466065166       0.818623458584835       0.835135577592192       0.720453976256488     
  0.588437431687667       0.602172536207688       0.616624029301467       0.631825653104248       0.497648890370437       0.470156284154958       0.446471350570614       0.452556251555069       0.458531117087027       0.464396925589536       5.599949547644553E-002  0.427524187114684       0.520105650346951       4.936563782383929E-002  7.687402533832485E-002  8.420055907899697E-002
  9.166505403268359E-002  9.928239544965267E-002  6.281214135611306E-002  6.974677378095664E-002  0.107108061865798       0.115131199826127       0.741453137200736       0.762828894755016       0.491816194165957       0.486630888210223       0.551175754937641       0.563011591485726       0.475809969462698       0.504345714696407       0.484170183309642       0.473708650627298     
  1.770061183293244E-002  0.891095025321551       0.765090037336155      -9.575731807654062E-003  0.848622340428656       0.991495347129510       0.463243765602314       0.452772397991420       0.442291615171119       0.723556921608599       0.682038999022344       0.671653772123804       0.640492231137238       0.713178406168515       0.754701742104067       0.838106891498020     
  0.880405965876531       0.869767305270905       0.859174378253721       0.744314861085188       0.733937978242483       0.827622181449187       0.817163135093396       0.806722967109530       0.796296364681194       0.609308830432571       0.702799872035661       0.692416901907317       0.630096458957827       0.619701033671870       0.177918240886529       0.167249052814852     
  0.588497776117918       0.567670830398080       0.536385849175613       0.525954783298893       0.557243827074332       0.546817296120205       0.156538359724265       0.145802656482947       0.135103043152090       9.220176842183765E-002 -3.539441465427716E-003  0.124416968652017       0.113668660837854       0.102922434911026       8.141406430951320E-002  7.061846470244601E-002
  0.252495879034519      -7.624872253353775E-003  0.433959738557648       3.770036295657162E-002  0.220619545249856       0.209960205483634       0.199272077143990       0.241865076604303       0.231248923680920       0.305471911896299       0.263128784388266       0.284331754156949       0.273740896362340       0.431809099876881       0.421326853409256       0.368771179955727     
  0.358251218221224       0.347724132796477       0.337182076334971       0.978860719622072       0.967664608538801       0.505077061434729       0.494629546943336       0.400494748879386       0.407454608558216       0.778308854071024       0.441007106902924       4.986092598461199E-002 -5.224583145046336E-003  0.289498409412912       0.182196487517871        1.00027632600312     
  0.374399142854649       0.305291263715105       0.394079477792129       0.655985048003708       0.160909569475448       0.230530835178456       0.568718542922560       0.815243825075552        1.00188751071227       0.364185625727023       0.486792150712374       0.476526819459226       6.216198181505197E-003  4.322903767499414E-002  0.958704382759366      -8.088155614818978E-003
  0.568737829776525       0.947360118809641       0.516427636535880       5.039332511647471E-002  0.246733255351654      -1.641030911092059E-002  0.257456755482125       0.652139155540462       0.797568427674239      -1.022394521668100E-002  0.862848677815371       3.834864475469304E-004  0.915491058787770       0.514318391059361       0.219546861247213       0.134237780297053     
  5.671962852703889E-002  0.125740681578881       0.544539267442039      -1.419698551103216E-002  6.280446364209881E-003  0.384979872945617       0.776988957361844       0.914411077917501       0.411379284029916       0.395556255265462       2.615607994291272E-002 -1.327118618507716E-003  0.631309972221004       0.321421597292377       0.673283973419909       0.930805935842071     
  0.323026320301512       0.379461918285111       0.421708877361329       0.493648653808431       0.691461804544115       0.710712284414854       0.170162489012329       0.179602280573425       0.142890492639459       0.151811988766497       1.212722926424515E-002  1.801253808591285E-002  3.667065326041683E-002  2.402843352818665E-002  3.021687137378814E-002  0.189255360366704     
  0.199129216158183       0.209187130010950       0.581458231697380       0.241689265853043       0.252303864009763       0.277197850032228       0.291502694167891       0.262464523400503       0.335862255635446       0.877078014749104       0.890567561426715       0.903356647272333       0.979305960882662       0.989754818587654       0.968107404422900       0.926997911638608     
  0.937996586999756       0.948462427489576       0.831981732115568       0.847829402817681       0.594881132057674       0.609013287263958       0.623882706513496       0.639528844369138       0.453283737401071       0.465119576996515       0.523022043279229       7.817906080579540E-002  8.567493766146110E-002  9.329909599785118E-002  6.370747056940511E-002  7.084997777091463E-002
  0.101098752669480       0.109116472046267       0.117303371729242       0.731988259440267       0.755747412620761       0.344179075266797       0.556521318296081       0.352318753991867       0.499643989826949       0.506584786793687       0.474484634084355       1.532864605976018E-002  0.892797102014818       0.756177157190088       0.453470114942520       0.724961159122645     
  0.672950228849054       0.850247158822431       0.871426584374065       0.740565491288997       0.829217485717018       0.808293016943695       0.792628098183040       0.610475965346606       0.704172460772589       0.688563204587532       0.171359442377631       0.589619558555932       0.532132368308583       0.547829312233167       0.160526180721492       0.149636396748807     
  0.138746341290637       0.127885587755973      -1.603020458011268E-002  0.116970766789554       0.106003159273014       9.503011967367253E-002  8.401041629762768E-002  7.291009153005082E-002  6.175405192680534E-002 -1.323601960946537E-002  0.431512728561980       0.533101379295497       3.855825229460531E-002  0.214567690778444       0.203777740378027       0.192991340042082     
  0.236020464700665       0.225312539543112       0.310775224179514       0.300131281343377       0.278849156793791       0.268170375332583       0.432428695901829       0.363824764317199       0.353253482059317       0.342664866919380       0.332055885760795       0.988777337047017       0.975316518849064       0.964060163517402       0.495476751305447       0.408202295993342     
   1.01337758736901       4.074776626659339E-003  0.796171875847919       0.579825910998579        1.01317049087826       0.941153607721330       0.969628883264339      -8.733197937362786E-003  1.958586418396948E-002 -2.489546805545880E-002   1.01172784955683       0.374791863245628       0.643189253047547       0.883993326276969       2.531169596271204E-002  3.923921317763184E-002
  0.822670519151984      -1.999681539102518E-002  4.639122191957315E-002  0.671622554293855       0.270808512273389       0.387949812676431       0.252899551020060       0.883195448126286       0.229961224268762       0.554509425037382      -2.356908103517740E-002  0.169978086574936       1.394077354314396E-003   1.00188720694790       0.682317437417850       0.697975638544873     
  0.443719617129491       0.246235550067899       0.289355453155391       0.773874074010604      -1.481045462914262E-002  0.503595316054747       0.168269885927589       0.330624472168362        1.00085711275064       0.491635239203835      -2.489827305500872E-003 -1.417612945191790E-002  5.761422923767431E-002 -2.021142297848064E-002 -2.393084228106917E-002  0.519642850505351     
  6.051299643845263E-002  0.905524765671442       0.750093239984083       0.525386297732420       0.390746264598849      -7.134859112844560E-003  0.924588939057881       0.132187382020434       0.149753428882544       1.023014316081499E-002  3.283887556427830E-002  0.187508591226767       0.207626331067003       0.709771155665628       0.373060202789784       0.908905157819143     
  0.989770129009321       0.979905384748008       0.932081575555552       0.953388848862815       0.854574660079061       0.315306400631250       0.607353668025810       0.299500216163793       0.285388944909017       0.637861482472734       0.482518944531440       0.448306836567953       0.460342810459314       8.286428340966366E-002  7.148055043485149E-002  9.849936576917705E-002
  0.114921963075803       0.746216358720586       0.345236493275247       0.359481433862230       0.471949188429544       1.177686654671082E-002  0.862694888422453       0.464842725860838       0.664060283197944       0.768336623956304       0.734445465740704       0.841574567970517       0.820585059931008       0.802271312801342       0.786590636573985       0.716212762154775     
  0.622304714801498       0.601405657683316       0.580476856781336       0.559516528247719       0.541155301057767       0.147874087307014       0.125707736487873       0.103336208429899       8.069946944103258E-002  0.437443568085316       0.427814439944969       0.535610945256326       0.202840879971474       0.186578007809607       0.224602452950137       0.310784582420523     
  0.267858277235653       0.422580566134973       0.404067953748686       0.353532228911358       0.332207660248209       0.985561897271973       0.971791625078652       0.957871361678281       0.506990751969962       0.485936160011973       0.402333417561690       0.416185329796930       0.434005010314108       0.917186578996653       0.194848597466195       0.563608849861025     
 -3.436657754882606E-002 -1.523626580413476E-002  0.935089018687892       0.489698996280956       0.896856198422917       0.534632875132206       0.321601600179325       1.370277516473839E-003  0.879235254203724       0.766428530382038       0.434438962219962        1.01123566994243       0.216284407116212       0.993325065653462       0.797928503396040       0.478724533922567     
 -2.007570545702930E-002 -1.308760032930489E-002  0.983945097927582       7.733414204633688E-003  0.974609978788673       8.852337183949502E-002  2.465794321180385E-002  0.650183225426578       0.634464111399449       0.176793872503517       0.875428054839443        1.02465909371687      -6.010253053226001E-003   1.02380801057969       4.315631646958915E-002 -3.147306815520769E-002
  9.023648433729683E-003  0.103025541522983       0.467832552352169      -5.080766653940791E-003   1.00292487101896       0.692033341926601       0.517458227866931      -2.642549753663193E-002  0.551779739535584       0.341066573074534       0.353071537349948        1.00165910560922      -2.248464351882683E-002 -2.872177538618155E-002 -3.332457710711084E-002 -3.496102949234652E-002
  7.321252236621811E-002  0.137747888000575       0.156079973901516       2.090461091107503E-002  3.503857039572580E-002  0.175020488746607       0.262400383270773       0.242482276829960       0.120453785755923       0.905395139201929       0.968971406406763       0.928887075568280       0.950145841607185       0.822678334980685       0.850079448102613       0.521202101637895     
  0.324887407683130       0.589458588094372       0.309321559405230       0.294309561386036       0.618257304842063       0.279916725127151       0.505556551525921       0.456047498115045       4.903087487457898E-002  6.172936189518574E-002  8.684032143636082E-002  0.685292975448807       0.724441467764919       0.540737300197050       0.368224810890782       0.854224420722837     
  0.455251619757755       0.675017639553714       0.655406046456116       0.761268898984778       0.744282663125953       0.833177353581817       0.813534328288632       0.796525186533838       0.779535989681867       0.727300364259435       0.709033217455522       0.613507204817429       0.592525900177837       0.571504658265522       0.157001210677175       0.134324110525949     
  0.111642072517870       6.498824752506108E-002  0.444642641584630       0.396884754575848       0.382396467774857       0.193454297406795       0.234637241868953       0.212741477699426       0.299948009528535       0.278368852593928       0.256534629281847       0.389728757501184       0.414070645147792       0.364572292423408       0.343177702846047       0.951871500384142     
  0.497651746357450       0.476472583547543       0.411127804455721       0.423855769552214        1.01700284433547      -4.476422340274041E-002   1.02032417969151       0.888409121992775       0.846053005040745       0.343425700412501       0.988391428952575        1.00084541288776       0.201631996111343       0.310771350784763        1.00279651052401       0.362765571850548     
  0.479475451519574       0.228469448235742       7.794595154681861E-003  0.929864384417242       0.906467556187327       0.106984709057100       0.437053164418879       0.378254786511662       0.867131118452451       4.026626755022322E-003  4.873276050047997E-002  0.937174070231539       0.424991266071053       0.183733509161009       0.254153788993008      -4.702068284039868E-002
 -2.555284826515302E-002  0.909309885561021       0.625992988416905       0.332643043350329       0.658465789633177       0.798955216305685      -2.619895558807362E-002  7.222481425823028E-002  2.626632399460027E-002  0.273229513750672        1.02530472575737        1.00776741217646      -1.850374717674465E-002   1.03760169641092      -5.927925037480315E-003 -1.310049331889974E-002
  0.536241419590100       0.509022100569879      -4.035714928669272E-002 -3.387571566245436E-002  0.297502514821945      -3.383542002379066E-002 -3.983901865337371E-002 -4.464293250006330E-002 -4.698482527866799E-002  0.142525887153033       0.124956699601351       2.168176815149429E-002  0.161331781898065       0.180809219406380       0.969623423814300       0.950903584933027     
  0.826198492722917       0.880370560104572       0.854144963175566       0.452936248950576       0.569500129589387       0.596103655432648       0.320172591804732       0.625944479768672       0.503933682977142       0.464456851335150       3.616085205224998E-002  4.957240974552582E-002  6.193427016212522E-002  7.472553861459906E-002  8.972187513613356E-002  0.745083188115344     
  0.695968311639737       0.545094334327375       0.392278125606464       0.445709689098285       0.694269143996033       0.667382205662668       0.647026424566612       0.764014849546869       0.825732221398070       0.798948553406771       0.738166269641839       0.720469085851299       0.604951364575243       0.583861264983667       0.563388531214521       0.164804251000059     
  0.142997769049883       0.119762886860171       9.627503731963352E-002  0.222660054355516       0.201825815735827       0.288956362849989       0.267022185815793       0.244832989125299       0.401369066543763       0.377554047450560       0.354303728088517       0.967914430800235       0.488412899816635       0.467077802792612       0.406712344224333       0.420299015142334     
  0.522057460103713       0.413180679751836        1.02188286084839      -5.656021758606133E-002  0.545877606774848      -4.257880122526745E-002 -6.029308778040438E-002   1.02035504113041       0.848871667062755       0.266942360970093      -3.831674909206009E-002  0.890710721608559       0.711147288695474      -2.169592556806544E-002  0.974743036808624       0.957163238311945     
   1.03663316733582       6.045696118126407E-003 -6.195768094658038E-002  0.662096353138001       0.299752787363373        1.03359822339585       0.914228265296879       0.782909630571313       0.495452035589815       0.110022434661867       9.142366424946201E-002  0.731868504305614       0.995947229098625       0.181926561243825       0.432767285114446       0.815134769860905     
  0.524430117522555       0.374339158258552        1.01050033205869       0.211570878090166       0.242170260255695       0.994431559830094       2.412757557545050E-003 -5.054165772395428E-002  0.321864878092466       0.448896371722375       5.469897770659560E-002  3.008765997444150E-002   1.01930530249541      -3.372483741343819E-002   1.03922344161230      -9.155761140932703E-003
 -2.159209184167399E-002  0.617820480763807       0.489804389882041      -4.841702908177722E-002 -5.460514325280355E-002 -5.955158058592418E-002 -6.208792053122984E-002  0.127876619664177       0.145785426740157       0.165023849382862       0.185307166400325       0.936869548224519       0.849739971331894       0.890596837762100       0.627772966094505       0.357046790890826     