 VARIABLES = "X" "Y" "RO" "U" "V" "P" "M"
 ZONE T="  0.000000000000000E+000 " N=        2335  E=        4433
 ZONETYPE=FETRIANGLE DATAPACKING=BLOCK
 VARLOCATION=([3-7]=CELLCENTERED)
  0.994139519291147       0.988311489114691       0.981873153325145       0.974758025316944       0.966893061719315       0.958196999433815       0.948578064425605       0.938213703078791       0.927299704297282       0.915803602826764       0.903690850386886       0.890924935934839       0.877467567724364       0.863278078354359       0.848312726740422       0.832525588645374     
  0.815868035228278       0.798288020424860       0.779730462890374       0.760136822649454       0.739445453856713       0.719305944822304       0.700118351217143       0.681841900798496       0.664437673161370       0.647868816784173       0.632100285054804       0.617098791070215       0.602832744482796       0.589271369946444       0.576385185188483       0.564145968034231     
  0.552526188121356       0.541498848068373       0.531329620660341       0.522183565898045       0.513960586288895       0.506569435709093       0.499927548891875       0.493959890228315       0.488598454550621       0.483151458887453       0.477601794456711       0.471948645712144       0.466191033938096       0.460327386800966       0.454355834566646       0.448274007889972     
  0.442079122357085       0.435767978091075       0.429337010623788       0.422782360058335       0.416100036998990       0.409285969085083       0.402335959433329       0.395246025746393       0.388011997957134       0.380630146305826       0.373096453360765       0.365407164705018       0.357558618558312       0.349546760362762       0.341368068728489       0.333018429737154     
  0.324493755892207       0.315790154809260       0.306903046873449       0.297828029441741       0.288560689861840       0.279096146930859       0.269429805747667       0.259557000671193       0.249472578881510       0.239172060629157       0.228757762896978       0.218549789392977       0.208544569095348       0.198739855791276       0.189133753268059       0.179722724475233     
  0.170502758046808       0.161472868750251       0.152632028368329       0.143979752613022       0.135514018346112       0.127228754050831       0.119124329331426       0.111202093146120       0.103463280090181       9.590113799273069E-002  8.851389363170671E-002  8.130610668266663E-002  7.428141510551498E-002  6.742987691286016E-002  6.075743492838583E-002  5.427600722178504E-002
  4.797762048312047E-002  4.187099066402675E-002  3.597108758968046E-002  3.027190572826669E-002  2.480843446733234E-002  1.957473747166686E-002  1.467434273068524E-002  1.014223447185552E-002  6.216790835563402E-003  3.042282828217088E-003  8.319106374495693E-004  3.659661429841659E-004  2.515687205002421E-003  6.137261433451249E-003  1.120579282787362E-002  1.761529745356070E-002
  2.515137789598638E-002  3.377590495309023E-002  4.353527565097776E-002  5.349691917566442E-002  6.356158001870633E-002  7.371431351948678E-002  8.392290621979168E-002  9.418755157514266E-002  0.104493089268906       0.114833538766395       0.125208480292377       0.135610004665774       0.146032601834500       0.156475709712282       0.166935404553486       0.177407425024532     
  0.187888312718729       0.198376462383849       0.208869897622769       0.219366663407076       0.229865306685548       0.240364774095809       0.250864328080326       0.261363239175865       0.271860935002841       0.282357148469280       0.292852011383342       0.303345331336540       0.313836480609238       0.324325247676748       0.334811549667706       0.345295302133324     
  0.355776919841520       0.366256418265720       0.376733513958233       0.387207714857554       0.397679070502029       0.408147736661898       0.418613867924334       0.429077819115289       0.439539223822127       0.449997755218104       0.460453601955314       0.470906853157994       0.481357569162466       0.491805429057309       0.502250540895804       0.512693368890636     
  0.523133862019616       0.533571959552070       0.544007721824318       0.554441273208583       0.564872235461580       0.575300334600136       0.585726316312854       0.596150297084856       0.606571977299895       0.616991726375060       0.627410082417815       0.637826011559608       0.648240296314445       0.658652936287973       0.669064027458851       0.679473763361824     
  0.689882346207445       0.700290286254359       0.710698092183791       0.721106165262008       0.731515293824764       0.741926364946958       0.752340465153559       0.762758877659120       0.773183480873558       0.783616162671311       0.794059423868158       0.804516163785663       0.814989877335108       0.825484257694780       0.836003588506069       0.846552524311296     
  0.857135711371327       0.867758391536746       0.878425611940332       0.889142571691938       0.899913698278964       0.910742797966011       0.921632396169261       0.932584108680240       0.943597787512210       0.954671294831140       0.965799403836098       0.976974768315854       0.988185052135274       0.999416588486387        10.3004800000000        9.70989700000000     
   8.75177100000000        7.46426000000000        5.89863100000000        4.11723600000000        2.19103800000000       0.196810700000000       -1.78589700000000       -3.67789800000000       -5.40348300000000       -6.89339200000000       -8.08753700000000       -8.93736500000000       -9.40778000000000       -9.47857100000000       -9.14527300000000       -8.41946000000000     
  -7.32845700000000       -5.91447300000000       -4.23320000000000       -2.35185600000000      -0.346770100000000        1.69947500000000        3.70124200000000        5.57335500000000        7.23478100000000        8.61234000000000        9.64426800000000        10.2834400000000        10.5000000000000       0.842219292968429       0.527357651308431       0.602184788713053     
  0.898865960005139       0.872050714774424       0.944724385200743       0.922998902973020       0.413784734524789       0.950583496994723       0.518577046709275       0.997704684911413       0.641323814534933       0.985980020843743       0.469382139615412       0.971883533387198       9.271380077789760E-003  0.954646348065264       0.391876672235000       0.361675941099611     
  0.377091954919956       0.412970031013923       0.345617533467288       0.122175215672024       0.439221429557414       0.475088747845878       0.328869558648326       0.571169862259847       0.311403083167194       0.657602143357403       0.293182748798545       0.790996138095082       0.274170773467478       0.979282303538323       0.254320839958057       0.302390170866540     
  0.233643874920351       0.223278501867695       0.213121914148251       0.183820118237944       0.193386769251502       0.165283223300827       0.174461273850605       0.138843677151191       0.156285962248638       4.298952948344703E-002  1.965919605799228E-002  3.684324264090613E-002  4.538881322377109E-003  2.516142401378554E-002  3.092343746093461E-002  5.138727227882670E-004
  0.369464267582528       0.203158324119370       0.320228280808596       0.244068936482617       0.283780080050284       0.264349587268828       0.353732597915292       0.337331343546407       0.885813099812899       0.384552907496183       0.992035277280577       0.963706151391549       0.911249446589851       0.934148414027891       0.826060346300487       0.857533776557762     
 -2.627320833317430E-003  0.497301610770657       0.547778033121694       0.771976475285205       0.692669329571210       0.731339425232929       0.597112525710666       0.625839131954834       0.486190099216874       0.510727614878442       0.451619635071009       0.463569755279712       9.847106842884495E-002  0.426348070203520       0.518598827626505       0.419724170637786     
  4.931312436165566E-002  7.634709199882488E-002  9.093981985289372E-002  0.106178780257983       1.428445015269597E-002  6.249697467894468E-002  8.356114901137067E-002  6.934520713595493E-002  0.480690711194424       0.114092134956849       0.751841619567032       0.491604540673435       0.399050865500310       0.130424256011222       0.559172395547696       0.445477785021167     
  0.503655120247443       0.611113333479850       0.537099373432710       0.674705314472417      -4.483691061525608E-003  0.476700656512438       5.578543841007577E-002  0.181892960572583       0.487177835400591       0.392783132811625       0.961715434739202       0.789949543634012       1.021769777047448E-002  0.508115064085003       0.995197136520529       0.917553531229731     
  0.810899592270928       0.984135228696740       0.928502533216662       0.455742706761633       0.434766222437908       0.685627047361005       0.664775808680330       0.727321938406602       0.706474283463953       0.769048212815043       0.748176459013405       0.853064407544367       0.831925597099460       0.895838697778048       0.874355948863238       0.863688520096982     
  0.906665372615345       0.939512706991473       0.842478451437923       0.885070474951317       0.737747741937514       0.821401058763000       0.779494289868060       0.800416815977331       0.716897660970441       0.758609528242449       0.612620827573057       0.696050836399721       0.633488715871874       0.675202138397602       0.643919318254138       0.654348259816169     
  0.591742659794147       0.623051732010890       0.171343159854680       0.581300773615392       0.539495141113319       0.560403533881618       0.570856321482148       0.529037928922764       0.549949662085470       0.150210927887000       0.160781101337309       9.760109663969736E-002  0.139648094339363      -6.756994409048394E-004  6.624104211006779E-002  0.118614439531698     
  0.129136408031051       8.713506911521884E-002  0.108080190902687       1.746055776344002E-002  7.664845869363122E-002  0.192461264323546       2.575533087454476E-002  3.995676054801179E-003  0.711536947296241      -3.650554855038627E-003  0.432846107379709       4.541787240988667E-002  3.518479796750576E-002  0.255872502089861       0.224189922491460       0.213623636849120     
  0.203046721987839       0.245302136434414       0.234744326253540       0.308605598006764       0.266434135288655       0.287529472588534       0.276986544926281       0.319148344163246       0.298063319654111       0.329683519217082       0.350731068879426       0.371756029368837       0.403287138101891       0.445256905780861       0.466223677337876       0.424275914815872     
  0.382272688234163       0.361243668707855       0.809004447942271       0.340211071296087       5.579794915812272E-002  0.972897802873552       0.497649663886601       0.583806558756684       0.457649639428927       0.147469665576235       0.406079607616027       0.803367226697006       0.667051291673135      -2.207232098833607E-003  0.395907697464180       0.159712715700010     
  0.852853002534808       0.217507704749062       0.133369852792249      -9.275557216674959E-003  8.070534996062749E-003  0.907569670762137       4.378448526771631E-002  0.514362891548116       0.227914849988436       2.764567905797675E-003  0.141931018024546       0.124945008168371       0.542410112611696       0.951919648141052       0.365982841018158      -6.314092119963118E-003
  0.387910227546984       0.957831420465948       8.334457564730910E-003  0.946688516796274        1.00501566341650       0.377349741964406       0.786021673939721       0.660643972475080       0.913648830376329       0.935612700801957       0.902761679119310       0.577005883123181       0.408999391310809       0.514123841245659       0.650197663352839       0.398459677109641     
  0.292731457331423       0.775551967436504       2.548545885142159E-002  4.710739676966366E-002  1.359440053439229E-003  0.186338310198885       5.796801040393581E-002  0.597932950933259       0.324525042975191       0.313926430788161       1.365279030979071E-002   1.00654821151763       0.684688116890130       0.867646783929164       0.442833487566889       0.919531227442116     
  0.924601663527781       0.577914997806332       0.381259931644558       0.373708139004318       0.388659350146539       0.416824835232156       0.423515882911462       0.483923515324395       0.650263620537006       0.703215904412078       0.784986543858690       0.977626878587589       0.984488848311211       0.298002125753050       0.307147376847292       0.187708770567109     
  0.168865826556349       0.178188508470950       0.150730599519049       1.934094733698461E-002  3.735957782183164E-002  2.516474654837374E-002  3.117631779584935E-002  0.197448313874532       0.207386552832340       0.316098541114237       0.324860391082564       0.238582262657965       0.249135291347013       0.279109643980736       0.288659155161716       0.259363870846466     
  0.269343311906928       0.350057428579226       0.358102218865085       0.333438893837169       0.341836240183270       0.881667829646225       0.894960643930509       0.531971651260000       0.992792035626126       0.961564889788638       0.970047888963148       0.930878226816927       0.941699891016134       0.820766392844163       0.837242995300968       0.722794370150785     
  0.590948723776376       0.604671250998539       0.619108255440595       0.634293250873730       0.500213152115062       0.472722741226204       0.449033617041641       0.455120217921394       0.461096207574277       0.466962948199701       5.701242552835482E-002  0.430079007848584       0.522662534548100       5.029478188357960E-002  7.811679157151954E-002  8.551530488215159E-002
  9.304857387503603E-002  0.100732221693896       6.390529021015348E-002  7.091585518486503E-002  0.108622415352312       0.116708057388909       0.743753650007676       0.765085711473317       0.494381660330822       0.489197138038163       0.553715341189444       0.565543078215517       0.478376702552687       0.506908246073674       0.482632418696331       0.472124246712349     
  1.636097064588890E-002  0.891938344148430       0.765091297603356      -1.013693913333116E-002  0.849171958255647       0.993013544290859       0.461614368322986       0.451098480857681       0.440574779185651       0.723300495947297       0.681534228070811       0.671089435495632       0.639749351412657       0.712859134441857       0.754637502132218       0.838585002928756     
  0.881174433651436       0.870462089503482       0.859796044790873       0.744187351590222       0.733743988267129       0.828029720519222       0.817500657989965       0.806991826565385       0.796498598301558       0.608392671279167       0.702418214520769       0.691975293976887       0.629294962815752       0.618842035633821       0.175668354377278       0.165010063906687     
  0.587469604340810       0.566533574753394       0.535093834233095       0.524610624445832       0.556053458091923       0.545574788605786       0.154314558032238       0.143598754143247       0.132923877733025       9.018103628271865E-002 -4.441899136533940E-003  0.122267783563854       0.111555549909275       0.100851946253747       7.945186247195994E-002  6.872438510040868E-002
  0.250258919513797      -8.366131981618090E-003  0.436517483573448       3.609695952763309E-002  0.218358988050256       0.207697508100380       0.197010500922187       0.239617552024889       0.228993494670827       0.303322953941308       0.260904957498682       0.282141201017420       0.271532594459386       0.430049894735638       0.419526973100583       0.366790608916528     
  0.356238759737129       0.345681126426456       0.335110001166477       0.980299362309550       0.969032972543613       0.503635051857297       0.493138890672105       0.403033243971554       0.409998315019527       0.780527409528235       0.443564342639443       5.081527839280853E-002 -5.198506530364259E-003  0.287328976107668       0.179962526119729        1.00184005807792     
  0.372443067622356       0.307686958247863       0.396608184033312       0.658418975435361       0.162772766009905       0.232709182695038       0.571242056498975       0.817391075778884        1.00357574652783       0.366681151499467       0.489356487474612       0.479091403423956       6.494077103386202E-003  4.409805167002754E-002  0.960506750753590      -9.034411298461682E-003
  0.567605892556972       0.948566164941632       0.515044747530802       4.865809767312396E-002  0.244504154665221      -1.685642706386247E-002  0.255239709135328       0.651461226179901       0.799748660143036      -1.034099330395759E-002  0.864891964854674       5.408397754123911E-004  0.917406700625032       0.516875222026246       0.221681457505497       0.135943170069180     
  5.775488606005124E-002  0.127388462872031       0.547079253501544      -1.446790753947809E-002  5.057557088749865E-003  0.383056444351271       0.777059730837483       0.915399989754623       0.409545283625119       0.393665622042299       2.466629474501275E-002 -2.416977694807146E-003  0.630514107856184       0.319319838497806       0.675694544423418       0.931901105773675     
  0.325460449855990       0.381976165237938       0.424257609034721       0.496212017311888       0.693845405496882       0.713064928865053       0.172075774901400       0.181561889401539       0.144649198951045       0.153625006202659       1.251306091823945E-002  1.850238969224053E-002  3.745163905705505E-002  2.461737490707416E-002  3.090135332249846E-002  0.191261756012609     
  0.201179024116223       0.211280622265832       0.583971719033988       0.243907786431920       0.254557343468029       0.279525091676406       0.293866170159285       0.264745863199787       0.338319610176107       0.879088810695844       0.892545281362730       0.905303467920187       0.981051084877652       0.991473436051431       0.969883866143028       0.928884460214008     
  0.939853848521869       0.950292286778615       0.834093441812600       0.849907410212554       0.597382704966310       0.611501387372763       0.626355059611107       0.641983396235299       0.455845011419794       0.467683195047626       0.525574926319530       7.943816470335993E-002  8.700473422390660E-002  9.469520295530198E-002  6.482099304253697E-002  7.203409143651943E-002
  0.102561750652644       0.110642302296599       0.118892032378331       0.734302815215157       0.758012611337862       0.346647883560459       0.559053740675894       0.354797330083735       0.502205904477372       0.509144642945539       0.472908803149441       1.397591013224272E-002  0.893634617891297       0.756111513458851       0.451804763911046       0.724710495386540     
  0.672394373693376       0.850793253563707       0.872116749173414       0.740406908779796       0.829621902151123       0.808556720557075       0.792794732745813       0.609565384265120       0.703791809201543       0.688094699560562       0.169133175980355       0.588597001716935       0.530821454157239       0.546590414259722       0.158314417266959       0.147441932233209     
  0.136576229435278       0.125742636404168      -1.665567170860022E-002  0.114863131616054       0.103934829845050       9.301058957846059E-002  8.204502722724827E-002  7.101122480801787E-002  5.992890469179799E-002 -1.402815396633811E-002  0.434065846811922       0.535648704699766       3.693389140044958E-002  0.212322042795553       0.201531731263425       0.190750533863642     
  0.233783443856524       0.223068896329923       0.308648550783673       0.297982801909328       0.276662067302752       0.265966478414794       0.430677610305803       0.361837238989028       0.351234605412753       0.340617092437318       0.329979745956787       0.990220624810306       0.976686350830443       0.965372944416191       0.493994817883427       0.410742405793604     
   1.01500321653318       4.402384473188557E-003  0.798353343646042       0.582334165594972        1.01483509420145       0.942278927315969       0.971409693023389      -8.633459991274281E-003  2.014916256985357E-002 -2.540925100523355E-002   1.01331043073731       0.372850105939939       0.642462126690313       0.884744513439471       2.379748737511550E-002  3.760437714096900E-002
  0.824802180019360      -2.017625278721512E-002  4.732502945506803E-002  0.674027466911016       0.273103797373562       0.390463839318792       0.255142234839614       0.885192906040472       0.232122080276078       0.557037285352896      -2.391117307577085E-002  0.167776777466896       1.551708227542383E-004   1.00340458854966       0.681813889662512       0.697555738173863     
  0.442027240413936       0.244025938668055       0.287202774058864       0.776095316151237      -1.484496821547846E-002  0.506152725463520       0.170159418707004       0.333061218298084        1.00256126843526       0.494196402226312      -2.271928788029807E-003 -1.515770915781158E-002  5.583272285246078E-002 -2.104903688331038E-002 -2.460958554356394E-002  0.522192192371550     
  6.160744822712892E-002  0.906423245092760       0.749982026097828       0.524052002371186       0.388852246127421      -8.242330750656489E-003  0.925612943532762       0.133869282637602       0.151541995623978       1.064445212285729E-002  3.359946384671466E-002  0.189491812979874       0.209697733643111       0.712114969625227       0.375557275360077       0.910841133284959     
  0.991499646409935       0.981660110244759       0.933959954502738       0.955212107785310       0.856637457623731       0.317711000099406       0.609836358399908       0.301868677996541       0.287723535917372       0.640310503696498       0.485080023486186       0.450861186312960       0.462900721282390       8.416451864822036E-002  7.267743893900737E-002  9.993611271395790E-002
  0.116485710397068       0.748490320206935       0.347698754514949       0.361961636046636       0.474509303209453       1.041012770840126E-002  0.863303364830150       0.463237668478281       0.663453958824399       0.768339691021952       0.734245171099998       0.842042516631121       0.820912371744781       0.802482354753515       0.786709578496768       0.715901562875466     
  0.621461366706632       0.600449196330853       0.579409697691584       0.558339943096678       0.539889473455160       0.145707321528677       0.123595251109121       0.101301285188161       7.877097828681764E-002  0.439993967019983       0.430360468278950       0.538150520042490       0.200617998515571       0.184364788264657       0.222379760491559       0.308673509306956     
  0.265672493069507       0.420802909789736       0.402216501111000       0.351526686452734       0.330145965927097       0.986927922883968       0.973101992312958       0.959103691258244       0.505573431482085       0.484422331545999       0.404861047089880       0.418723982214650       0.432290007069894       0.918125346146308       0.196831751781926       0.566116996886683     
 -3.477690852483407E-002 -1.635511664149432E-002  0.936134990209624       0.492254998841491       0.897660474536887       0.533344232752092       0.319544296891786       1.734013358666015E-003  0.881239263132501       0.768655822689453       0.436982018835322        1.01292024483880       0.218359875755756       0.995061785294540       0.800099880629407       0.481281118825027     
 -2.003326997635919E-002 -1.292463036295960E-002  0.985704649447313       6.345688214616246E-003  0.975871258851034       8.659460283738069E-002  2.312144510689164E-002  0.652601091828055       0.633688667447149       0.174625727889191       0.876093106721155        1.02629106386661      -5.735076257568352E-003   1.02540313224766       4.148833417635244E-002 -3.172155596570755E-002
  9.489132754042949E-003  0.104479370389555       0.470386918194067      -6.333667552542300E-003   1.00437453773103       0.691577911765255       0.516097259243722      -2.652047712815175E-002  0.550568786330108       0.343509388857348       0.355531109907987        1.00337243470990      -2.348814838727249E-002 -2.959847207087759E-002 -3.405110267924300E-002 -3.553072995728419E-002
  7.442281709844316E-002  0.139438184031539       0.157874500795118       2.154141465361421E-002  3.586004596846394E-002  0.176911956035697       0.264651030455103       0.244663918504740       0.122034034448410       0.907340021556729       0.970767343196961       0.930777749947121       0.951986323627811       0.824806153657960       0.852148758990738       0.523741210424352     
  0.327297910413118       0.591943961729091       0.311696107917428       0.296650124640999       0.620713285014647       0.282220766546992       0.508105081080634       0.458598292778968       5.001471231420118E-002  6.284221537122378E-002  8.816343592902025E-002  0.687660819636331       0.726743996331560       0.543263063145358       0.370705276197598       0.854752546732699     
  0.453620722027466       0.674472364188567       0.654747415669498       0.761214039990190       0.744129783026417       0.833569024507147       0.813797712176460       0.796688422596326       0.779596383777557       0.727048190373972       0.708670945888381       0.612618033233494       0.591525411223191       0.570395309391166       0.154861705678360       0.132234059671659     
  0.109620405659298       6.318272626602439E-002  0.447189540995021       0.399397770063402       0.384894075436372       0.191273918825707       0.232458444016465       0.210557192504997       0.297847163023388       0.276232897419542       0.254372265985546       0.387853197039032       0.412282074954225       0.362621721670263       0.341171079633688       0.953002632777276     
  0.496200417182110       0.474929206793685       0.413653844931108       0.426392205995657        1.01851013609492      -4.508069592064658E-002   1.02187037188891       0.889121221015784       0.846504774130022       0.345855188845754       0.990162177203728        1.00258703020594       0.203612880097805       0.308724529763614        1.00417516634400       0.365225215560261     
  0.482026104762001       0.230565240273728       8.339259379631363E-003  0.931763657543917       0.908417502996563       0.108457650252137       0.439588245916365       0.380735368978852       0.867711985656003       2.609735575706427E-003  4.702951088440609E-002  0.938170241522694       0.423265904449386       0.181597913017001       0.256349051694595      -4.748950802522460E-002
 -2.668313897679017E-002  0.910137058630105       0.625173589437355       0.330641731959791       0.660852121430564       0.801117980867051      -2.608974510729846E-002  7.040204917809340E-002  2.469308239585260E-002  0.275483022117820        1.02696370590786        1.00948540485838      -1.829249885811901E-002   1.03920448052196      -5.563617548721826E-003 -1.436858806580634E-002
  0.534970378424274       0.507622983811409      -4.051960476430905E-002 -3.389411960138480E-002  0.299827767226948      -3.484783300709380E-002 -4.074176576010881E-002 -4.541153293013278E-002 -4.760201236927454E-002  0.144222064231748       0.126550377007449       2.239482909749303E-002  0.163128309478388       0.182698787562629       0.971437145109464       0.952757143540757     
  0.828319454539372       0.882377818397403       0.856211558333127       0.455478552097007       0.571984613162203       0.598562840747736       0.322551588592806       0.628371283232420       0.506472590006548       0.467002894261321       3.703717730260434E-002  5.059019377102425E-002  6.306294699275994E-002  7.595070222501611E-002  9.106561773245342E-002  0.747337262267112     
  0.698300860548644       0.547599745764062       0.394775307503528       0.444057755982060       0.693822710595454       0.666777041498866       0.646316205915015       0.763955439448372       0.826065996281984       0.799112995598040       0.737955901923193       0.720174824751982       0.604017026919059       0.582820482040212       0.562254260490217       0.162693668549370     
  0.140930851745422       0.117756517196408       9.434894833562625E-002  0.220518493684649       0.199684083227968       0.286872167981893       0.264909279584362       0.242700633885485       0.399562449530442       0.375670357706204       0.352354334404226       0.969062179616139       0.486929512330858       0.465510021108715       0.409223036456067       0.422821116494360     
  0.524581631717443       0.411443455916288        1.02359906929046      -5.679145650444096E-002  0.548357280914231      -4.252781223634354E-002 -6.066935485315682E-002   1.02180636830474       0.849300367820763       0.269144512388353      -3.945976413650742E-002  0.891390589575969       0.713433894922782      -2.298738502203223E-002  0.976571330366077       0.959025708581942     
   1.03819886365553       6.662947151937279E-003 -6.247518537177209E-002  0.664451338956443       0.297722957210254        1.03512198413688       0.916177149581959       0.785091215739867       0.498000091387149       0.111515881817430       9.278622176272068E-002  0.731618604512052       0.997217422098880       0.179842934577085       0.435285130718248       0.815362906303569     
  0.523126400969513       0.376793636893039        1.01224809584905       0.213564073175692       0.244288218689502       0.996216635967906       9.528369128388233E-004 -5.062609264404608E-002  0.319873136698884       0.451425501566006       5.296896002550755E-002  2.847180084447188E-002   1.02099357755730      -3.356170168295881E-002   1.04085415944984      -8.716488405735775E-003
 -2.129222862867359E-002  0.616959217417716       0.488343825521913      -4.943341414391406E-002 -5.551722433499408E-002 -6.034865242267221E-002 -6.274526624593252E-002  0.129480219180364       0.147483907864777       0.166821128423818       0.187187824772491       0.938771982022456       0.851817989088267       0.892591588083616       0.630170472601069       0.359477365933048     