 VARIABLES = "X" "Y"
 ZONE T="  0.000000000000000E+000 " N=        2335  E=        4433
 ZONETYPE=FETRIANGLE DATAPACKING=BLOCK
  0.994544195930859       0.988727555022006       0.982301571048107       0.975199782014240       0.967349321541131       0.958669110448951       0.949067432138520       0.938721402372383       0.927826421559668       0.916350003290262       0.904257570421232       0.891512609699775       0.878076861582781       0.863909679935476       0.848967289958396       0.833203769090404     
  0.816570491633134       0.799015378367342       0.780483286344476       0.760915595510899       0.740250581878216       0.720135698928730       0.700970624055527       0.682714780596768       0.665329421759057       0.648777797301815       0.633024960124140       0.618037783582547       0.603784796333549       0.590235292668220       0.577359863180494       0.565130419047871     
  0.553519523855562       0.542500217006548       0.532338018376236       0.523197950554084       0.514980111183984       0.507593385784162       0.500955307566959       0.494990928067623       0.489632317495059       0.484188070320919       0.478641078281005       0.472990532368073       0.467235444514204       0.461374230172020       0.455405006217498       0.449325389652756     
  0.443132588820978       0.436823403181801       0.430394252286198       0.423841258231555       0.417160426294622       0.410347671435674       0.403398751566233       0.396309676006057       0.389076217940249       0.381694573587983       0.374160947569710       0.366471349811030       0.358622058312360       0.350609127361079       0.342428914919288       0.334077269214989     
  0.325550053525152       0.316843328380951       0.307952461453116       0.298873007334456       0.289600471854422       0.280129964784439       0.270456758963867       0.260576043878540       0.250482688471052       0.240172031167313       0.229746271968952       0.219526004678238       0.209507688175816       0.199688923471062       0.190067683171393       0.180640574693632     
  0.171403849175470       0.162356342587545       0.153496866417844       0.144824800332766       0.136338173834421       0.128031375668724       0.119904530225107       0.111958707262078       0.104194911400813       9.660685088494690E-002  8.919275784787285E-002  8.195674943188201E-002  7.490217234501646E-002  6.801969935153332E-002  6.131486409998604E-002  5.479894613500917E-002
  4.846446726865085E-002  4.231978944061528E-002  3.637936435200967E-002  3.063760971909643E-002  2.512844530787501E-002  1.984644882143870E-002  1.489258512058345E-002  1.030189065500029E-002  6.309351308242176E-003  3.059651446070522E-003  7.668764741398627E-004  2.125140722962964E-004  2.273683310766717E-003  5.808888628651815E-003  1.079775845148557E-002  1.713680645685282E-002
  2.460828386945367E-002  3.317209022365471E-002  4.287402119121336E-002  5.278617292132964E-002  6.280771017689178E-002  7.292342907876102E-002  8.309904451672487E-002  9.333517050681323E-002  0.103615412391604       0.113933353795383       0.124288940796544       0.134673491535342       0.145080896363435       0.155511136572104       0.165960082580559       0.176423068029879     
  0.186896228380818       0.197378132586293       0.207867009020229       0.218360667603341       0.228857419477870       0.239355975685146       0.249855657762520       0.260355964107233       0.270856181149257       0.281355898387438       0.291855104770486       0.302353475396885       0.312850566613637       0.323346214880922       0.333840243810738       0.344332476116638     
  0.354823234161422       0.365312440633412       0.375799847965433       0.386285089770835       0.396768151202598       0.407249120982254       0.417728087157504       0.428205337950203       0.438680535476695       0.449153407462541       0.459624104420095       0.470092677111552       0.480559159902468       0.491023283887575       0.501485110610419       0.511945033658302     
  0.522402980908274       0.532858917770169       0.543312878609542       0.553764977327078       0.564214869300776       0.574662312354135       0.585107946518576       0.595551881202554       0.605993859629821       0.616434178332855       0.626873316049373       0.637310382485439       0.647746081709409       0.658180413496672       0.668613475575884       0.679045464302806     
  0.689476580974648       0.699907331529780       0.710338221008124       0.720769650207213       0.731202412636098       0.741637401104768       0.752075708148145       0.762518624453800       0.772968038087210       0.783425842504526       0.793894538647321       0.804377026682418       0.814876804379157       0.825397568557974       0.835943610721871       0.846519605876301     
  0.857130224309873       0.867780733913712       0.878476205549349       0.889221839701804       0.900022095928792       0.910880821585766       0.921800574688280       0.932782964535893       0.943827820715475       0.954932978214986       0.966093263839906       0.977301306814811       0.988544999523891       0.999810787445876        10.3004800000000        9.70989700000000     
   8.75177100000000        7.46426000000000        5.89863100000000        4.11723600000000        2.19103800000000       0.196810700000000       -1.78589700000000       -3.67789800000000       -5.40348300000000       -6.89339200000000       -8.08753700000000       -8.93736500000000       -9.40778000000000       -9.47857100000000       -9.14527300000000       -8.41946000000000     
  -7.32845700000000       -5.91447300000000       -4.23320000000000       -2.35185600000000      -0.346770100000000        1.69947500000000        3.70124200000000        5.57335500000000        7.23478100000000        8.61234000000000        9.64426800000000        10.2834400000000        10.5000000000000       0.842879432874405       0.528369790886957       0.601597872027886     
  0.899438511079970       0.872665684105321       0.945220045899049       0.923531738036374       0.412894699433821       0.950825422683888       0.517839275759661       0.998110996694002       0.642240933105238       0.986403027421912       0.470424667968335       0.972331067798593       9.454738422842930E-003  0.955124476103144       0.392939364994931       0.362738163911980     
  0.378155070095526       0.414029999569732       0.346677293171793       0.122959411102663       0.440274964934157       0.476128772409683       0.329925185565519       0.572149707680722       0.312452232628142       0.658502735263432       0.294222548398941       0.791729298709492       0.275198158532106       0.979717028491568       0.255331698491874       0.303435031263520     
  0.234633388685046       0.224255645789287       0.214085985853407       0.184739810270599       0.194322164223327       0.166169001534121       0.175364441756291       0.139671385971419       0.157153400516461       4.344870993052779E-002  1.994768504041204E-002  3.726296946889809E-002  4.660279494102831E-003  2.549596493636331E-002  3.130190635582324E-002  5.674276371723985E-004
  0.370527133292744       0.204108516622667       0.321281005920949       0.245069806896021       0.284814108298079       0.265369238386239       0.354793772520399       0.338389274769650       0.886406515596339       0.385615956298685       0.992448396478709       0.964168072300279       0.911801807805098       0.934662360232636       0.826744087720282       0.858170991370426     
 -2.646580380088151E-003  0.498331204826757       0.548775872539942       0.772735953923760       0.693531697712993       0.732154589908145       0.598070788457421       0.626771278646923       0.487224994147082       0.511749927051203       0.452669136739682       0.464614709115692       9.918191945846211E-002  0.427405133153234       0.519616480818418       0.420782778525520     
  4.980948295128979E-002  7.697437243700860E-002  9.162411946678123E-002  0.106915146211146       1.452234858146262E-002  6.306216375068623E-002  8.421762801547836E-002  6.994218233820415E-002  0.481728177395485       0.114853006897876       0.752629066696178       0.492636904796671       0.400112904172237       0.131230706459156       0.560161623565309       0.446529375535639     
  0.504681382718385       0.612059155736801       0.538104929296340       0.675587722136126      -4.583915917863796E-003  0.475896392253058       5.506907660673497E-002  0.180911350855288       0.486389573682988       0.391868947788075       0.961987645002524       0.789772297803957       9.798752873165836E-003  0.507360102113833       0.995558793659019       0.917705141410561     
  0.810773584842383       0.984468500049668       0.928684039143245       0.454907853040187       0.433902723884253       0.685211280911923       0.664315619541164       0.726998104607239       0.706103930457647       0.768820941774519       0.747900424514173       0.853045015973684       0.831852199975366       0.895931831539501       0.874392035077959       0.863696674139067     
  0.906787593262912       0.939724466872932       0.842431882932565       0.885134888042342       0.737447680387624       0.821301175131388       0.779291827961132       0.800265085110804       0.716550440205944       0.758357705320613       0.612054314846460       0.695657685667366       0.632963867571840       0.674763980235898       0.643415750347284       0.653866255742063     
  0.591135635058204       0.622505895451594       0.170370199027898       0.580673966964061       0.538792916002764       0.559738181326143       0.570210062419766       0.528317786950297       0.549265643686052       0.149260529738128       0.159818450115191       9.674666676420696E-002  0.138712088777997      -9.433178009169746E-004  6.548259593109876E-002  0.117713790664355     
  0.128216899444637       8.630850399733943E-002  0.107201194323782       1.697532643477370E-002  7.585380399505015E-002  0.191472471697249       2.520719941043750E-002  3.649970055358384E-003  0.712377087418222      -3.839543318254521E-003  0.433901460002861       4.475044626196093E-002  3.457485818865298E-002  0.254869315714359       0.223188353879585       0.212624933402207     
  0.202052232618958       0.244298354028671       0.233741090859442       0.307620589995454       0.265432677502915       0.286534494331503       0.275987857926034       0.318169621858498       0.297072901461194       0.328711929740474       0.349776019965512       0.370820126168813       0.402384725143054       0.444407476274492       0.465403883996143       0.423398873069037     
  0.381347312820146       0.360297884976575       0.809712488952463       0.339247397437924       5.632950129893583E-002  0.973200463490094       0.496877854872773       0.584776126538863       0.458696923385567       0.148317738408038       0.407140728726106       0.804080344810071       0.667942984078543      -2.119277984548805E-003  0.396968791497884       0.160582193563329     
  0.853495413166058       0.218472305837635       0.134179541479195      -9.327188349052709E-003  8.277580296263016E-003  0.908127690038553       4.425416911907985E-002  0.515383507588401       0.228892664327554       2.915511321922325E-003  0.142761473997011       0.125732688336504       0.543412404154569       0.952404474453779       0.367043782961802      -6.292443693188527E-003
  0.386993329396890       0.958082250739184       7.904167408850018E-003  0.946911613919601        1.00539052936792       0.376422227096819       0.785831712963163       0.660174510610172       0.913784302366926       0.935806828389750       0.902868254970162       0.576370911637576       0.408105382068918       0.513379585748444       0.649706360747058       0.397554177110932     
  0.291743243952797       0.775337610902256       2.492933457908477E-002  4.643117792724510E-002  9.958958219618518E-004  0.185360323015409       5.724465479362777E-002  0.597337509723281       0.323553930702287       0.312948763362134       1.391098204187820E-002   1.00694522913645       0.685560505789292       0.868267019606766       0.443885144321792       0.920069938958573     
  0.924765385580081       0.578889963553150       0.382321624552408       0.374769560402815       0.389720815452267       0.417882928714344       0.424572626115989       0.484959175705882       0.651172764021496       0.704066821424640       0.785725125915959       0.978067841128174       0.984919487540390       0.299041722119801       0.308192034475209       0.188629600263740     
  0.169753335002007       0.179093104008067       0.151581050001828       1.964590219887621E-002  3.779066919957690E-002  2.551369100107765E-002  3.156727437811232E-002  0.198384574813450       0.208337390975032       0.317147212529166       0.325912553754179       0.239572653422892       0.250136862929590       0.280137361815756       0.289692885673192       0.260375070497942     
  0.270363372500391       0.351115808253425       0.359162028967667       0.334493500476973       0.342892948289552       0.882266606109269       0.895538684881071       0.532981290566241       0.993210002047375       0.962032906237584       0.970500976181704       0.931398344779715       0.942201971598361       0.821455232683222       0.837908282331398       0.723620918085495     
  0.591912919586067       0.605623597808851       0.620047565105349       0.635218209771789       0.501241378447872       0.473763366465358       0.450083281544922       0.456167838451701       0.462141560243752       0.468006023196498       5.755237434172274E-002  0.431134074952808       0.523678190477127       5.080031851635266E-002  7.874986935758915E-002  8.617716183851361E-002
  9.373772665102084E-002  0.101447480124189       6.447796350029264E-002  7.151928905459742E-002  0.109362865712834       0.117472689422207       0.744551561443409       0.765852725146325       0.495412700722406       0.490230458084728       0.554709185262502       0.566527851013104       0.479414897843894       0.507933008599503       0.481838436122623       0.471314380921553     
  1.586719350657163E-002  0.892016278319678       0.764852342362251      -1.027326756122717E-002  0.849138626423242       0.993351332641588       0.460789353895085       0.450258534677147       0.439720632412759       0.722965974302901       0.681108395122068       0.670641773472690       0.639236682785788       0.712501432805396       0.754374177954573       0.838524709297206     
  0.881223950836351       0.870483656700020       0.859789949382074       0.743900575254413       0.733432584166674       0.827942838739999       0.817387467944804       0.806852860549514       0.796334699746153       0.607817387733739       0.702037532572165       0.691572619455364       0.628761045332664       0.618287361540897       0.174698484803820       0.164049888168065     
  0.586854146053439       0.565879256867781       0.534385001739580       0.523883557444646       0.555380354346251       0.544883285792633       0.153366011437664       0.142663943618107       0.132004918611940       8.935176651984572E-002 -4.732616482536082E-003  0.121366979797478       0.110675627829053       9.999578891889485E-002  7.865337696423463E-002  6.796089413793982E-002
  0.249260756881820      -8.583515263199955E-003  0.437570794938846       3.547696687342507E-002  0.217364943136379       0.206707370767724       0.196025710210176       0.238619574253433       0.227996868241453       0.302339576673687       0.259907746002583       0.281149040008874       0.270537408160117       0.429181796640786       0.418645704472068       0.365853103471249     
  0.355291857974182       0.344725455355985       0.334146238803365       0.980605884489313       0.969312151543015       0.502873954219768       0.492361004849040       0.404093531224352       0.411057694010680       0.781270853549304       0.444614572741195       5.133034933458289E-002 -5.077006069599854E-003  0.286343680585782       0.178997016728839        1.00219592926378     
  0.371514122882404       0.308727567069461       0.397667071915493       0.659319787491751       0.163643515642224       0.233687904407982       0.572222135481318       0.818084882883596        1.00398572582601       0.367739401923974       0.490389086436700       0.480128647884723       6.724378864554304E-003  4.457788072618094E-002  0.960982125158430      -9.346920265360934E-003
  0.566954060951367       0.948783236148506       0.514304869967693       4.797112371399063E-002  0.243511798638646      -1.694273075370600E-002  0.254247823438745       0.650972586503966       0.800465298964970      -1.028193307012847E-002  0.865517013122650       7.192409147902875E-004  0.917950954383346       0.517894116988557       0.222646031195825       0.136755663870449     
  5.830305368901867E-002  0.128179109681230       0.548077549803485      -1.447649304002707E-002  4.616504774633570E-003  0.382137536136958       0.776847027836511       0.915533821838868       0.408654250775604       0.392756891619228       2.409838689192852E-002 -2.795843872050478E-003  0.629982708809391       0.318350088427491       0.676576810659831       0.932075638668923     
  0.326509483447168       0.383035453987158       0.425312439577348       0.497241606344063       0.694707254492574       0.713903624326102       0.172964616197852       0.182467079991870       0.145481571628120       0.154477515220005       1.278958270123969E-002  1.882322193660670E-002  3.789496598203471E-002  2.498021477507621E-002  3.130431902431132E-002  0.192183339894090     
  0.202115402571531       0.212231760075806       0.584941521840044       0.244898976978812       0.255559242346474       0.280548098271297       0.294898605796998       0.265755821264897       0.339372788372831       0.879692885960631       0.893128392213516       0.905867083582894       0.981492412474859       0.991899639475578       0.970343837848195       0.929410714394197     
  0.940362252815174       0.950784048178836       0.834763428818035       0.850555006807255       0.598341307590443       0.612447519044321       0.627287603785914       0.642900783205312       0.456891337916236       0.468725149805525       0.526588385580642       8.007676275268964E-002  8.767162823633659E-002  9.538830990873100E-002  6.540104474964148E-002  7.264257621029192E-002
  0.103281179528350       0.111386135824770       0.119660154569809       0.735114204865285       0.758788935600416       0.347703008572373       0.560043141940724       0.355853641749460       0.503232802209730       0.510167867932589       0.472102749899435       1.347352275599935E-002  0.893710739820918       0.755848035028924       0.450968682413238       0.724378492356044     
  0.671950242695486       0.850758948007342       0.872136936620796       0.740109004266856       0.829534194328281       0.808416172644706       0.792617874167079       0.608992622021032       0.703411901152655       0.687682583868018       0.168175863796087       0.587984104854272       0.530106717504131       0.545900838085596       0.157368356119155       0.146508470172206     
  0.135658424272204       0.124841734925545      -1.682227788533447E-002  0.113982699202374       0.103076696232126       9.217885598462851E-002  8.124210949892301E-002  7.024251226797590E-002  5.919758071081154E-002 -1.427017658224862E-002  0.435118326931435       0.536655641217244       3.630099308664759E-002  0.211336881026264       0.200551236555023       0.189777011257710     
  0.232792422903797       0.222079786976853       0.307672580452478       0.297001979823326       0.275673759138919       0.264975567038484       0.429813278664831       0.360899009326564       0.350287227444919       0.339661672094588       0.329016545804726       0.990530021969416       0.976966918983145       0.965631309156675       0.493220742318319       0.411799763028246     
   1.01538569396928       4.652938856639278E-003  0.799074490291071       0.583304042702365        1.01523549071823       0.942465729603845       0.971873796822152      -8.481120350105112E-003  2.050005253874188E-002 -2.552717121520459E-002   1.01367504634532       0.371927128503304       0.641956486513890       0.884788531386531       2.321494733260685E-002  3.696332442832718E-002
  0.825488313182470      -2.014579204284679E-002  4.783046284889360E-002  0.674910126843992       0.274114720984694       0.391518886707043       0.256138306576820       0.885790243329389       0.233092700863285       0.558027245764179      -2.395255847401161E-002  0.166829693570084      -2.957818719806801E-004   1.00374329790159       0.681389572274758       0.697162063765549     
  0.441184156879432       0.243042008695362       0.286224751709619       0.776844733045482      -1.475102176030471E-002  0.507176740748860       0.171037898178809       0.334107632807257        1.00298140317367       0.495226384442810      -2.068517382084966E-003 -1.548837633978248E-002  5.511974336740976E-002 -2.131351225704510E-002 -2.480177726465806E-002  0.523206336146193     
  6.217853179397619E-002  0.906523293015882       0.749702226165932       0.523330192678215       0.387943866172136      -8.631489976111089E-003  0.925760897237301       0.134671366515737       0.152383794047477       1.093205164103449E-002  3.403313136186673E-002  0.190403319948935       0.210639254427988       0.712951930542484       0.376611803375252       0.911399473901661     
  0.991933922676348       0.982108940714837       0.934482555085332       0.955701266572427       0.857277293826381       0.318750269248624       0.610782717535026       0.302899369753343       0.288745368148588       0.641228244292889       0.486113719790542       0.451907115204080       0.463942725837709       8.481836411949631E-002  7.328979251929672E-002  0.100643903278976     
  0.117242790436375       0.749277377858008       0.348750320369248       0.363014944493012       0.475547132547594       9.898449033045405E-003  0.863293295713128       0.462423537030620       0.662992178280955       0.768102347597743       0.733932407109751       0.841979376437636       0.820796298293698       0.802322635585555       0.786515410580986       0.715547892944279     
  0.620913751807194       0.599860959675974       0.578781955252242       0.557673426837146       0.539191536593397       0.144785455021678       0.122707120768537       0.100457088462067       7.798341641400618E-002  0.441042908697646       0.431411383476321       0.539154034175387       0.199647689680912       0.183405457183374       0.221399730875972       0.307704338671465     
  0.264689422902140       0.419932025477088       0.401321801045334       0.350585166202374       0.329189091613408       0.987207977194220       0.973360152887528       0.959331705047469       0.504822992950793       0.483638931217766       0.405915433402532       0.419776754021818       0.431441746918815       0.918241487649253       0.197739139689367       0.567096943797325     
 -3.485002084097647E-002 -1.675186757410902E-002  0.936292068553146       0.493284835288947       0.897725402599385       0.532639476160970       0.318593914074607       1.998994995155086E-003  0.881844525264088       0.769415195002137       0.438029231353970        1.01333112799755       0.219298208151842       0.995502088045661       0.800818794634693       0.482315489910807     
 -1.990704095206973E-002 -1.274611855781528E-002  0.986158220542549       5.821005034682433E-003  0.976111403592806       8.580029929325585E-002  2.252473665410976E-002  0.653503493975953       0.633166525698021       0.173688724888285       0.876105168714235        1.02667868928243      -5.508160673483610E-003   1.02577465901722       4.082698196912091E-002 -3.172283898290269E-002
  9.797178124930837E-003  0.105191216120923       0.471424703624374      -6.793812797276188E-003   1.00468769135922       0.691171886023417       0.515367612068478      -2.645422424325210E-002  0.549891332137749       0.344553752136800       0.356577968261255        1.00379920927070      -2.383096505620972E-002 -2.988265834618381E-002 -3.426659699835732E-002 -3.567522996130928E-002
  7.503866207827811E-002  0.140240342890866       0.158715140824735       2.192147093947400E-002  3.631709287038466E-002  0.177787431958273       0.265644951534777       0.245636478968722       0.122794584971387       0.907907071242627       0.971242470093041       0.931310626893922       0.952488285534389       0.825494642919033       0.852797388611511       0.524751793751524     
  0.328335094674760       0.592902839637044       0.312724763073933       0.297670376872135       0.621646733927183       0.283230567612571       0.509126280401422       0.459639692461104       5.053867196958172E-002  6.341881244505980E-002  8.882407074574164E-002  0.688524512825172       0.727558731482236       0.544260130504988       0.371754385537270       0.854712801865341     
  0.452800023986871       0.674033609789830       0.654267512170558       0.760955739517986       0.743835222956195       0.833477827914439       0.813658257186992       0.796511372701877       0.779380977740371       0.726717003084066       0.708299182111336       0.612054995773853       0.590922550381743       0.569753762326004       0.153945599020037       0.131349620606812     
  0.108775649072918       6.245227678818215E-002  0.448234307021960       0.400448303649765       0.385944390570504       0.190325122283946       0.231492501931222       0.209598570626226       0.296887004883971       0.275266663237991       0.253403944524027       0.386953334111682       0.411410005265219       0.361699925186588       0.340233703824012       0.953192508952430     
  0.495439930560437       0.474137622479127       0.414703561080888       0.427440708075108        1.01884645674165      -4.511347282301027E-002   1.02222204570197       0.889151866933871       0.846436926075857       0.346892355324182       0.990624679980723        1.00303226460830       0.204514949954585       0.307783168264748        1.00446151886411       0.366267095912902     
  0.483058735003518       0.231505291849685       8.678958173839237E-003  0.932304891978899       0.908991329850307       0.109174081974884       0.440631330568700       0.381779846641595       0.867692929239869       2.067510025462597E-003  4.634564303860905E-002  0.938309277730242       0.422417010209544       0.180671023046089       0.257321129166443      -4.759021189304748E-002
 -2.708777804891456E-002  0.910211556479360       0.624636769536467       0.329711113012503       0.661740377388526       0.801837127763556      -2.593585334144093E-002  6.965696220225201E-002  2.407420570509338E-002  0.276473155776656        1.02736410635473        1.00991676724823      -1.809450608051980E-002   1.03958117279485      -5.299872982632141E-003 -1.483889293951579E-002
  0.534273509804381       0.506882130104344      -4.048433418035379E-002 -3.379572699233314E-002  0.300839268750521      -3.519696210366340E-002 -4.103986576782895E-002 -4.564792454021679E-002 -4.776950599954729E-002  0.145023153871009       0.127313047192771       2.280491425480047E-002  0.163966085613319       0.183569573540919       0.971925427193593       0.953269750528432     
  0.829007913984670       0.882989417082974       0.856862957006187       0.456517949499790       0.572953912395875       0.599510144433454       0.323576756507424       0.629291695435171       0.507490188215762       0.468039611643965       3.751497024666745E-002  5.112614572857653E-002  6.364408076981698E-002  7.657024686606874E-002  9.173181984548598E-002  0.748124734894159     
  0.699147685433729       0.548587827089375       0.395821306409700       0.443232586282239       0.693420997968175       0.666317557157451       0.645818598527728       0.763696337013867       0.825953808958655       0.798937272055493       0.737641031779429       0.719829043925074       0.603439041148280       0.582204471638436       0.561605318100679       0.161784858141853     
  0.140050413417260       0.116912173695743       9.354915975361104E-002  0.219573068698935       0.198747600840990       0.285923641370583       0.263957467953730       0.241749748906194       0.398687964109547       0.374772423270436       0.351437488060705       0.969259754993717       0.486159930199089       0.464712434693418       0.410268600535419       0.423865805704844     
  0.525586577698331       0.410594389625387        1.02403244477943      -5.678794762314108E-002  0.549335205479111      -4.240067004906620E-002 -6.073019123254778E-002   1.02212162343470       0.849224953286557       0.270113362877193      -3.987330366675976E-002  0.891410168313396       0.714257614677000      -2.347235670370298E-002  0.977071195437048       0.959546542989978     
   1.03855994180632       7.031188401469169E-003 -6.259928931022353E-002  0.665327464858500       0.296793233606228        1.03546598456783       0.916754372841440       0.785834958313317       0.499025141309905       0.112237216711431       9.345691816952395E-002  0.731290153577425       0.997462705821152       0.178937525642516       0.436323240333596       0.815212353607181     
  0.522420929858148       0.377829123842816        1.01269960975441       0.214464983102324       0.245230162148899       0.996690453574522       3.854150253316407E-004 -5.055801991449227E-002  0.318950971019013       0.452461621903911       5.226600763603718E-002  2.782683710204961E-002   1.02140911902862      -3.338601252420507E-002   1.04124342896558      -8.423012405134890E-003
 -2.105792634039387E-002  0.616409058156722       0.487584681722525      -4.978682732150511E-002 -5.582175175560492E-002 -6.059999979269367E-002 -6.293269888232733E-002  0.130243669088599       0.148282406800850       0.167655509090154       0.188050964012421       0.939318572226427       0.852483363759958       0.893199714214243       0.631079700990014       0.360509143808300     