 variables= "x","f","g1","g2"
 zone i=                   500  datapacking=point
            0.5000000000000000            0.5492163895165884            0.0000000000000000            0.0000000000000000
            0.5020000000000000            0.5501608998724090            0.0000000000000000            0.0000000000000000
            0.5040000000000000            0.5511169644677282            0.0000000000000000            0.0000000000000000
