variables = "x" "y"
zone t="a"  n=5849      e=17319    zonetype=felineseg datapacking=point
  -20.0000000000000       -20.0000000000000     
  -13.6495937706794       -20.0000000000000     
  -8.49439896203731       -20.0000000000000     
  -4.41686121702127       -20.0000000000000     
  -1.22038502670233       -20.0000000000000     
   1.30429108878957       -20.0000000000000     
   4.61115603779960       -20.0000000000000     
   9.07627586520604       -20.0000000000000     
   14.8443195917699       -20.0000000000000     
   20.0000000000000       -20.0000000000000     
   20.0000000000000       -13.6876804064688     
   20.0000000000000       -8.42578738998514     
   20.0000000000000       -4.57682965162665     
   20.0000000000000       -1.90855164902228     
   20.0000000000000      -3.565918670580004E-002
   20.0000000000000        1.78430866981260     
   20.0000000000000        4.36662241259548     
   20.0000000000000        8.06060012088875     
   20.0000000000000        13.2891566862600     
   20.0000000000000        20.0000000000000     
   13.7116973026684        20.0000000000000     
   8.43988070669410        20.0000000000000     
   4.58362282563603        20.0000000000000     
   1.91142514448391        20.0000000000000     
  3.304978343020082E-002   20.0000000000000     
  -1.80879354802708        20.0000000000000     
  -4.45585339129703        20.0000000000000     
  -8.26124761726025        20.0000000000000     
  -13.3024777449199        20.0000000000000     
  -17.4022990508303        20.0000000000000     
  -20.0000000000000        20.0000000000000     
  -20.0000000000000        16.4375824791925     
  -20.0000000000000        12.1872554601271     
  -20.0000000000000        9.83308283603958     
  -20.0000000000000        7.57171321132677     
  -20.0000000000000        5.49288616613219     
  -20.0000000000000        3.58186647408112     
  -20.0000000000000        1.82510836770138     
  -20.0000000000000       0.210159522763746     
  -20.0000000000000       -1.55942994730890     
  -20.0000000000000       -4.10062003140831     
  -20.0000000000000       -7.75422887682089     
  -20.0000000000000       -12.9529825241296     
   1.00000000000000       0.000000000000000E+000
  0.997184234649635      -3.988376348985555E-004
  0.994411162781625      -7.902391617319340E-004
  0.991431125300252      -1.209264780907795E-003
  0.988243763955693      -1.655635703592877E-003
  0.984848734365679      -2.129060534443190E-003
  0.981246816505810      -2.629288100076564E-003
  0.977435648657153      -3.156335026589878E-003
  0.973413158316757      -3.710080236609475E-003
  0.969175388128527      -4.290463942925748E-003
  0.964721667664706      -4.897113622085012E-003
  0.960051565020934      -5.529503541986706E-003
  0.955166312007111      -6.186943177111701E-003
  0.949791825681483      -6.905725653485351E-003
  0.944129998206768      -7.658039331632124E-003
  0.938173703412086      -8.444177838212804E-003
  0.931915503196703      -9.264258192762779E-003
  0.925347075506868      -1.011851330220084E-002
  0.918462243550520      -1.100687003393943E-002
  0.911255649047848      -1.192882313870724E-002
  0.903722527257633      -1.288391385052074E-002
  0.895859098883010      -1.387166654124962E-002
  0.887647753901728      -1.489352753500192E-002
  0.879079208887374      -1.594952254993484E-002
  0.870145951195866      -1.703947399736560E-002
  0.860839980138370      -1.816301792615084E-002
  0.850344780414936      -1.941552347584090E-002
  0.839323340620471      -2.071415617887828E-002
  0.827777255378796      -2.205646228405646E-002
  0.815690957620989      -2.344190475807719E-002
  0.803047651471626      -2.487008607149304E-002
  0.789830686220350      -2.634021025499715E-002
  0.776023799367165      -2.785093126600787E-002
  0.761596978398690      -2.940234983763364E-002
  0.746527740121220      -3.099303915010630E-002
  0.730805526183828      -3.261978586777251E-002
  0.714450639176301      -3.427622522001066E-002
  0.697449604335605      -3.595909446625165E-002
  0.678568448329623      -3.778041082390185E-002
  0.658869585019816      -3.962611669466815E-002
  0.638325006988089      -4.148986557616613E-002
  0.616906136340189      -4.336392210827265E-002
  0.594693445810043      -4.522973477642222E-002
  0.571678446102368      -4.707489460088305E-002
  0.547834577977541      -4.888697890807495E-002
  0.523558415301664      -5.062119670125216E-002
  0.499057138528102      -5.225030959594391E-002
  0.474356949599535      -5.375960699827943E-002
  0.449458689578302      -5.513515736816892E-002
  0.425496555874061      -5.630912931804131E-002
  0.402274961761427      -5.729461287323426E-002
  0.379776785394553      -5.809404657196694E-002
  0.358182416203348      -5.870530898066122E-002
  0.337457349869619      -5.913602990934491E-002
  0.317567817818520      -5.939362486949724E-002
  0.298668827920699      -5.948529592806395E-002
  0.280576449348944      -5.942128057634928E-002
  0.263262094427972      -5.920956208865371E-002
  0.246703138902698      -5.885842212157574E-002
  0.230869024545017      -5.837452645386157E-002
  0.215735551925869      -5.776548705342490E-002
  0.201278568483908      -5.703949476452280E-002
  0.187474317783936      -5.620214101793430E-002
  0.174305514512038      -5.525988285506150E-002
  0.161753935190196      -5.422138681671019E-002
  0.149803070208516      -5.309329414390744E-002
  0.138447185990423      -5.188069002908633E-002
  0.127675507123582      -5.059264524894164E-002
  0.117477732591927      -4.923747378131862E-002
  0.108190443654178      -4.787553225364662E-002
  9.935535561026407E-002 -4.645402857164109E-002
  9.099800012345254E-002 -4.498363178556660E-002
  8.314288058300975E-002 -4.347748278715228E-002
  7.580506769194299E-002 -4.194834720735979E-002
  6.883089617598330E-002 -4.037166282353424E-002
  6.224845483174195E-002 -3.875849550968696E-002
  5.626584881445797E-002 -3.717109317291262E-002
  5.035638804703781E-002 -3.547298749478826E-002
  4.455494338760398E-002 -3.365914617944666E-002
  3.898874859493175E-002 -3.175750708198507E-002
  3.416361339665940E-002 -2.995529587436667E-002
  2.972787236684140E-002 -2.814677332379614E-002
  2.542912123092205E-002 -2.622347633653387E-002
  2.128666868701912E-002 -2.417139842733574E-002
  1.733057903930465E-002 -2.197446181175073E-002
  1.364751863347985E-002 -1.964769287768181E-002
  1.050140343569071E-002 -1.735727803158622E-002
  7.596528808087045E-003 -1.487153094648706E-002
  5.014160319350486E-003 -1.217374927694805E-002
  2.904289118302043E-003 -9.335676738398765E-003
  1.341252913138114E-003 -6.429698943644893E-003
  4.075331468466611E-004 -3.513925297864434E-003
  1.530462276253094E-005 -6.906128762211253E-004
  1.348859230921739E-004  2.039348830947994E-003
  7.900528615905128E-004  4.906112169621667E-003
  2.015012250472485E-003  7.832934809111191E-003
  3.843122677563494E-003  1.070224496867888E-002
  6.196100688523143E-003  1.348462335575194E-002
  8.912159610564076E-003  1.605137260743531E-002
  1.187012829456618E-002  1.839592588871935E-002
  1.512910099555611E-002  2.062250918032465E-002
  1.892319361170580E-002  2.289116794602188E-002
  2.290273767846285E-002  2.499849906114484E-002
  2.711525143489386E-002  2.700006161277196E-002
  3.142168466806767E-002  2.885653135102495E-002
  3.598234292260214E-002  3.065313368266996E-002
  4.094083671173866E-002  3.244432414276657E-002
  4.656244028769890E-002  3.430476917367619E-002
  5.229241282185206E-002  3.604471455083343E-002
  5.815027024854635E-002  3.768453272291509E-002
  6.418962388100315E-002  3.924792449675602E-002
  7.086271376296489E-002  4.084418380018694E-002
  7.792154516721431E-002  4.240249767580615E-002
  8.538410232730480E-002  4.392025974512329E-002
  9.335744786964377E-002  4.541200568262049E-002
  0.101826532425628       4.686473782606638E-002
  0.110763090433231       4.826573815564434E-002
  0.120154134589104       4.960668154276724E-002
  0.130470730563960       5.094044164188943E-002
  0.141360197473036       5.220551721773342E-002
  0.152832714651324       5.339298813961497E-002
  0.164897241675730       5.449491631279729E-002
  0.177561740072828       5.550643931325550E-002
  0.190843110057379       5.642022481650428E-002
  0.204759012668521       5.722782472379825E-002
  0.219327830566666       5.792360885169243E-002
  0.234573689451482       5.850139826899024E-002
  0.250519522418169       5.895288838134047E-002
  0.267190663609576       5.927108010385686E-002
  0.284616380006288       5.944908607196838E-002
  0.302821071839343       5.947857930703386E-002
  0.321838060385736       5.935181462893262E-002
  0.341845251728931       5.905822344334001E-002
  0.362688787313605       5.859098628176550E-002
  0.384402274937962       5.794278972487809E-002
  0.406974018840168       5.710791791212662E-002
  0.430261220652490       5.608798770450646E-002
  0.454279859343160       5.488079487452892E-002
  0.479045625035045       5.348385307542648E-002
  0.503780170297793       5.194618662819960E-002
  0.528280674097651       5.029292340931757E-002
  0.552547270959333       4.853715158141184E-002
  0.576037185744248       4.673253605519934E-002
  0.598728480607004       4.489688074037827E-002
  0.620645598013985       4.304192740302482E-002
  0.641775355567807       4.118133608779298E-002
  0.662057877275718       3.933121143353486E-002
  0.681519890474537       3.749904395333721E-002
  0.700187106444005       3.569084291338338E-002
  0.716936557381389       3.402681998625458E-002
  0.732989035068688       3.239588229011665E-002
  0.748348053608090       3.080251782601239E-002
  0.763111968825853       2.924073064722459E-002
  0.777298666187303       2.771249689977315E-002
  0.790917782656486       2.622017853553656E-002
  0.803974135431819       2.476616042615734E-002
  0.816480994857245       2.335195299854990E-002
  0.828451965761931       2.197853026126216E-002
  0.839900142858364       2.064661264344241E-002
  0.850839009753535       1.935689256448834E-002
  0.861282530088670       1.810987072524143E-002
  0.870310155997824       1.701955216127082E-002
  0.879058025370063       1.595213114121852E-002
  0.887505317156261       1.491117098573907E-002
  0.895637552258394       1.389937368117293E-002
  0.903453523766523       1.291796941373017E-002
  0.910950810848419       1.196766898236747E-002
  0.918131573402796       1.104926947419463E-002
  0.924999631443659       1.016350761198539E-002
  0.931559272322886       9.310756481843544E-003
  0.937815314792407       8.491293167864095E-003
  0.943774301981177       7.705102217467359E-003
  0.949442567335452       6.952245711399333E-003
  0.954826499721302       6.232567807878005E-003
  0.959701551378280       5.576729532994210E-003
  0.964372934822665       4.944503797879379E-003
  0.968832420014780       4.337318329344917E-003
  0.973079685390644       3.755867818434599E-003
  0.977114655209741       3.200733966871857E-003
  0.980940121531749       2.671803395576188E-003
  0.984557398043747       2.169486365376856E-003
  0.987968554745184       1.694033758370909E-003
  0.991172561012699       1.245544976875632E-003
  0.994169423517002       8.243172895775542E-004
  0.996961505681789       4.303361310623230E-004
   1.00267862932518      -1.410972602272053E-005
   1.00556019098046       2.428314102498626E-004
   1.00847699624597       8.414010078645289E-008
   1.01176146062752       8.472061033968463E-007
   1.01502406928164       1.101293307536938E-005
   1.01848451748345      -2.288810498979864E-007
   1.02209328532588      -1.854248024030649E-006
   1.02591368483071      -1.318926557847867E-006
   1.03003136959475      -4.624194280293165E-006
   1.03427569063496      -3.706859589663488E-005
   1.03863552976778      -3.553687365841668E-005
   1.04330033931857      -3.704535770492729E-006
   1.04827240985348      -5.675750216647972E-006
   1.05335315601998      -5.011010856035307E-006
   1.05874902527621      -2.101791620600452E-006
   1.06462252202576       6.826343311988877E-006
   1.07075148930565       8.291521227476592E-005
   1.07713660994707       8.016733719485741E-005
   1.08395498924500       6.475279939643931E-006
   1.09123212699814       1.701131482551900E-006
   1.09887083163815       4.051949806519417E-006
   1.10584301323861       6.175699501720173E-006
   1.11401897191515      -5.989099410335590E-007
   1.12403299867719       3.053184475240063E-007
   1.13355808433514       1.483533547284098E-006
   1.14355486603182       8.312101192977742E-006
   1.15266324155153       1.575518658941261E-005
   1.16335499314071       1.191946344581817E-005
   1.17650921555035       4.017248231473580E-006
   1.18907163600145       2.366536299429986E-006
   1.20224720942473      -6.232692102784943E-005
   1.21537457883781      -9.540206244753344E-004
   1.22883876551645       7.914944885200546E-004
   1.24521280618373      -5.080134166053509E-004
   1.26173683707789      -8.624685224823084E-005
   1.27872063351830       3.085369790185139E-005
   1.29655941262793       1.679611733738110E-004
   1.31552404316363       3.657622812513466E-004
   1.33514325451317      -4.907835294416220E-004
   1.35620706810972      -1.043173026868207E-003
   1.37758347699677      -2.220306144353937E-003
   1.40040266413224      -1.422995402548158E-004
   1.42646226368467       3.489495861470669E-004
   1.45166071754923       2.241222297963818E-003
   1.47797652358377      -2.166334856904125E-003
   1.50946383944014      -7.061936098132317E-004
   1.53978017958020      -2.795537007896298E-004
   1.57149630000948       3.655121489830504E-004
   1.60359390957947       2.842785828263655E-003
   1.63736452898058      -2.920531385362844E-003
   1.67614600393668      -3.679002052805514E-003
   1.71447203139488       2.986001009691482E-003
   1.76018698781265       4.760271340379623E-004
   1.80473460833667       4.967209490531119E-004
   1.85014867181596      -1.756115406306210E-003
   1.89557167256335      -6.837974335591087E-003
   1.94504276779406       3.670807538283772E-003
   2.00346101421256       4.849171929728343E-004
   2.06113066150933       4.481584694682205E-004
   2.11947761119221       4.068621787639849E-003
   2.17606541267221      -1.070883853023282E-002
   2.24766652595678       4.396689851823191E-003
   2.32585313282531       6.208271507008600E-004
   2.40264152111062       9.008348872393253E-004
   2.47895432308567       5.848897485677468E-003
   2.55254154725830      -1.331583458834990E-002
   2.64474069815388       5.736039024144900E-003
   2.74601772349296       7.377372186955435E-004
   2.84606838365651       3.428501487316522E-004
   2.95090623716136       8.875613307893500E-004
   3.05849657496683      -4.381541873109096E-003
   3.17095771770798      -1.489136114114805E-003
   3.29352570407679       4.271612702882238E-003
   3.42404284618100       8.145315737373127E-004
   3.55980356904942       1.077671934256237E-003
   3.70062472856548      -2.124519765116775E-004
   3.84093686222307      -1.286420763872948E-002
   3.99115924824961       1.208904503112379E-002
   4.16928625061689       2.547925775986989E-003
   4.34268786062619       4.749319937798233E-004
   4.52574482996032      -3.169903582846394E-003
   4.71876429473166      -9.644409995970043E-004
   4.92236297148950       3.198362486497250E-003
   5.13707363621467       8.507227879658428E-004
   5.36412831786694      -3.669024923836370E-003
   5.60386479965315      -8.644332109555217E-004
   5.85808111198132       4.884612544681938E-003
   6.11632516686308       2.459124893105446E-002
   6.38733121508740      -2.208981786795275E-002
   6.71029871094353      -4.204914795931856E-003
   7.03132749159412       1.480990804468805E-003
   7.37338413723075       3.058470116158022E-003
   7.68448149088209       5.296978420490977E-003
   8.05126718274269       4.138074549678352E-003
   8.49046388118189       2.385008034096340E-002
   8.89829787778779       6.704859894873959E-002
   9.35230930561502      -5.114047073808003E-002
 -2.683366135136458E-003  7.747325956787079E-004
  0.996121268556940      -3.315894517207119E-003
  0.996274679008438       3.368629496906600E-003
  0.999333274074839      -2.780036747786761E-003
  0.998053921492223      -6.183093370378679E-003
   1.00103359862568       2.629824634447047E-003
 -2.581237287296406E-003 -2.527113157936509E-003
   1.00450105411687      -2.859129714413073E-003
   1.00411174205325       2.531521120051944E-003
   1.00309488846657       5.737508122661173E-003
 -2.491507247482206E-003  4.147939061593648E-003
   1.00698922544790       2.840204263990265E-003
   1.00999288934024      -2.935395604356710E-003
   1.01006560118950       2.669774384422345E-003
   1.00879294569131       6.186574972875236E-003
  0.990343892703921      -4.830102967510338E-003
  0.990303106136843       4.661047471122585E-003
   1.01325168925117      -2.767907987344657E-003
   1.01206079875026      -6.267292744804483E-003
   1.01318335091792       3.053145693980871E-003
 -5.579530024248392E-003 -1.075516338956362E-003
 -7.137339219810501E-004 -9.232530766808184E-003
  9.409733694281722E-005  1.087400633163610E-002
   1.01653799169043      -3.157858078389781E-003
   1.01674479528193       3.180869547442506E-003
   1.01470509630581       6.578650399720543E-003
   1.00138321271625      -5.534771183494743E-003
  0.994492826464378      -6.308212431577284E-003
  0.992999859188045      -3.374509134637079E-003
  0.996510009679842      -9.621811645581636E-003
  0.999293035548513       5.513634491802246E-003
   1.00053744097797       8.884096574778443E-003
   1.00055697166943      -9.011131851900597E-003
  8.586771397707998E-004 -1.269016071410011E-002
 -5.847386761270617E-003 -4.835018045004864E-003
   1.02046970888899       3.213836284917224E-003
   1.02046814125254      -3.230805826351105E-003
  0.993454958232046       3.706558190772142E-003
  0.995357472101792       7.151762534725890E-003
  0.983541882041823      -5.999070418880239E-003
  1.973967684899245E-003  1.426307537057099E-002
  0.983580993234407       6.077030185187577E-003
   1.00468129601310       9.432607095231573E-003
  0.992316644796358      -9.675794434700352E-003
  3.510445401157541E-003 -1.616385462514033E-002
  4.839934350118254E-003  1.753941795017061E-002
   1.00440693885859      -7.770868897318967E-003
   1.01863800298087       6.683206570609777E-003
   1.01642044638155       1.045770843487041E-002
   1.01823474485314      -6.701367429081007E-003
  6.576978523276160E-003 -1.912140845049145E-002
   1.00795555561737      -5.926272794562419E-003
   1.00901572449400      -9.848200223533728E-003
 -2.073944043531562E-003 -6.217220958788302E-003
 -5.253789133922702E-003 -9.802636390128003E-003
   1.00357014000772      -1.191328901646686E-002
   1.00214233874618       1.278973601998926E-002
  1.109647748691645E-002  2.269129844659252E-002
   1.02313365179336       6.598526919477146E-003
 -1.598906245938408E-003  7.856914626828684E-003
 -4.528033454697979E-003  1.186732893542213E-002
 -5.839106991569465E-003  6.946561472841482E-003
   1.01385617036954      -1.028305606976451E-002
 -9.468750132419832E-003 -2.330622269544212E-003
  0.994701696788248      -1.347133414856357E-002
   1.02317300355468      -6.672372442847341E-003
  0.975483986707434      -7.769335235176715E-003
   1.02776850079445       3.579554703847434E-003
   1.02777264120579      -3.592986043493759E-003
  0.975390559191529       7.410387767912818E-003
  0.999254825063649      -1.306447519303186E-002
 -9.924730835080542E-004 -1.666402050548983E-002
  3.070037553574963E-004  1.837408716308947E-002
  0.987095699523622      -4.958354228163046E-003
  0.986631415191165      -9.068049621194308E-003
  0.981685702932511      -1.013836839145530E-002
  0.997813536252125       1.217454673398987E-002
   1.00639787074411       1.326274955241460E-002
 -6.621287172469049E-003  2.465665026980173E-003
   1.03229945156762      -3.758245594177359E-003
   1.02379241227027       3.181553343843944E-003
   1.02379065775705      -3.196059494524887E-003
   1.03233010421336       3.698789816131439E-003
  0.987118085263055       4.976257470439882E-003
  0.989069129539132       8.952217900031086E-003
  2.271152634501596E-003 -2.056905845705009E-002
   1.02072783803193       1.056415274720497E-002
   1.01823193897066       1.513768046034924E-002
   1.01099957160609      -1.377087767242844E-002
  0.990070032586532      -1.359299034930614E-002
   1.02035032326680      -1.067280742381152E-002
  0.999527147617170       1.642890173242163E-002
   1.00866342382548       1.006873158385045E-002
   1.01115419600436       1.351156905119213E-002
   1.00372418981313       1.651746593772031E-002
   1.00242192595261      -1.641626063624819E-002
   1.01223814293049       9.731322236766553E-003
  0.979558588988499      -6.389802047990033E-003
  0.985019596286915      -1.360540123470696E-002
   1.00801590022861       1.736687764602470E-002
   1.00198545684205       2.091112299841598E-002
  1.292118676635151E-002 -2.446078940187163E-002
  3.658237156976741E-003  2.196973886119316E-002
   1.02557181887074       1.072544515375161E-002
   1.02975918636627       7.536670280491116E-003
 -1.018435435722625E-002  5.615801742511319E-003
   1.02977536280402      -7.603674964237835E-003
   1.01571509999011      -1.494494949018400E-002
  0.992667360723932      -1.763029390706838E-002
  0.994907366465570       1.582785893283928E-002
  6.276874915993857E-003 -2.417280745255882E-002
   1.02568528362134      -1.090439441644630E-002
  0.980533459188669      -1.463368367199853E-002
  7.685710625605276E-003  2.016176329320942E-002
  0.967116926808434      -9.143048676052997E-003
  0.966597887774162       9.603632166773806E-003
 -1.525536836369671E-003  2.312257425155975E-002
  1.882390495474837E-002  2.813277448025391E-002
   1.01287162270845       1.788467335973674E-002
  1.699304903189917E-002 -2.718511208396039E-002
   1.00699830697859      -1.508414639694956E-002
   1.01042331461798      -1.866728170712523E-002
  0.997749277684010      -1.751644752505438E-002
   1.03527543808294       7.646058184217509E-003
   1.02302329741640       1.478272642342394E-002
   1.02120484528207       1.943512069988971E-002
   1.03530718607804      -7.738581433730801E-003
  0.987745027603539      -1.780246828549973E-002
  2.128920242716986E-002 -2.941820166280928E-002
   1.04070001883209      -4.171083223777525E-003
   1.04074979148689       4.143777308333082E-003
  2.747856530459818E-002  3.327035566831588E-002
  0.993438429470431       1.159033774924547E-002
  0.990357274580673       1.482934531373828E-002
  0.991826165522440       1.960526969846611E-002
  1.177315486985210E-002 -3.009060883288464E-002
  2.565076527984038E-002 -3.098523858601766E-002
 -2.524601551514303E-003 -2.154464620246441E-002
 -6.981016639259091E-003 -1.715748133790165E-002
  9.121428930233125E-004 -2.606079391445615E-002
   1.02282812065589      -1.507528658480719E-002
   1.01000814267874       2.197344215284926E-002
   1.00581433647609      -2.003797697801026E-002
   1.00929448094292      -2.429117547337323E-002
   1.03671665226395       3.330730504905407E-003
   1.03207463708799       1.226261955238081E-002
   1.02762626694859       1.487866806410394E-002
  0.979895325859533       6.788274675425019E-003
  0.982632335536659       1.061903876656621E-002
  0.990125869289796      -2.215474300348233E-002
   1.00109985088056      -2.131792128493851E-002
  2.982764971842549E-002 -3.335924655746854E-002
  1.678237151361512E-002 -3.283166803408530E-002
   1.03610706976177      -3.699172158859377E-003
   1.04595513335280       4.265615792355892E-003
   1.04597425781466      -4.269374868682623E-003
   1.03205683754154      -1.210427092537829E-002
  2.211802790825016E-002 -3.493689320029945E-002
  0.996776933964157       2.056878259467547E-002
  0.998714117727197       2.601237587268608E-002
  0.986885025528900       1.840907943209968E-002
  0.984856567479596      -2.226181005198709E-002
  0.995694728332673      -2.191139414266765E-002
   1.02563606947588       1.925648854867279E-002
   1.02353384055122       2.437570069690705E-002
  0.958330604002054       1.167312672520719E-002
  0.958969598218947      -1.111819187724084E-002
  1.019520608868951E-002 -2.159808112915773E-002
  0.985892605647614       1.381389243321077E-002
  0.981300043096022       1.562878730144629E-002
  0.977821506986655       1.171064934718359E-002
  0.972743166405161       1.139281281186349E-002
  0.975211205614282       1.641902961860225E-002
  0.988451269862528       2.345895107390548E-002
  2.505349709564025E-003  2.702102125664863E-002
 -5.454861580209386E-003  1.867540838148939E-002
   1.03737532137556       1.235642443591846E-002
   1.01619347987395       2.236528312147219E-002
   1.02806014094791      -1.510702832051548E-002
  0.993733876112212       2.486625060234514E-002
  0.994874725185694       3.072930683452034E-002
  0.982885244077553       2.240078728864388E-002
   1.03074827589692       1.883788957245300E-002
   1.03301910743103      -1.788500436019871E-002
   1.04296698738156       9.163449602883983E-003
   1.03805033239530      -1.271552882070172E-002
  1.701071424762186E-002 -3.903881918257704E-002
   1.04301713010103      -8.728121084389452E-003
  7.526299524905208E-003  2.535268491929038E-002
  1.273907932015233E-002  2.790772999435331E-002
 -3.466293832149140E-003  2.846996726692207E-002
  3.483456543372782E-002 -3.564179407300825E-002
  2.983779278440953E-002 -3.922534593012571E-002
  1.206493249423714E-002 -3.610313146481287E-002
   1.03502466997399       1.678454365929850E-002
   1.03528062279772       2.265616765705266E-002
   1.02570402287550      -1.975438672099149E-002
   1.04894565687375      -8.659030202781462E-003
   1.04898869281188       8.654471290688436E-003
  3.617128328659663E-002  3.699130865923160E-002
  0.969708049529719       1.591618068899551E-002
  0.992900630011076      -2.685193672986359E-002
  6.600658456093574E-003  3.078809456596695E-002
  0.972317532182236       2.128141134644463E-002
  4.992937256481836E-003 -2.940474476260968E-002
 -9.588918620692908E-005 -3.213672417986749E-002
   1.05562700716066       5.269486936202927E-003
   1.05561999383777      -5.276977656556815E-003
   1.04085694862490       1.740953831954295E-002
  1.357635414402751E-003  3.241260479847443E-002
  5.691026333578196E-003  3.681411705772961E-002
   1.02009067222814      -1.960102076847058E-002
   1.05103728915251      -3.853633370366039E-003
   1.04586080405292      -1.380026352787738E-002
  0.998728730066561      -2.654103790743515E-002
   1.04642901275149       1.378335453432905E-002
   1.05103890797229       3.802119303458099E-003
  0.982499435832790      -1.800506800559613E-002
  0.977226986537279      -1.861858056713119E-002
  0.975838942758236      -1.376720685554785E-002
  0.971647107603488      -1.774977531604916E-002
   1.01489064570612      -2.266261403918679E-002
   1.01314353075899      -2.830927639956216E-002
  0.970623671003744      -1.263068598208147E-002
  0.964909878237424      -1.490429918481623E-002
  0.973710444581597      -2.321721245575179E-002
   1.06183899677141       5.046568480419931E-003
   1.06188351704428      -5.070476006890673E-003
  0.996088248803669      -3.166439237129019E-002
   1.06806579868281       5.169417825078648E-003
   1.06817956008589      -5.062431455126891E-003
   1.01236075830208       2.738984112737927E-002
   1.02249573430182      -2.480726180843867E-002
  0.966207570737825       2.063472903700667E-002
  0.977887049088717       2.117589933079064E-002
  0.978791902814473       2.718959663840656E-002
  0.979605417804892      -2.373745195526060E-002
  0.984133417950982      -2.837740033704185E-002
  0.967700497495478      -2.229963677784490E-002
   1.05209334384907      -1.348542918789568E-002
   1.00609721433451       2.659578041451047E-002
   1.01857350882972       2.839521679842293E-002
  0.990389070977334      -3.197701549941131E-002
   1.00200195116141      -3.141649543588614E-002
  0.947375963996155      -1.286059638641743E-002
  0.947579472862335       1.314937162405904E-002
  0.990143863540654       2.867680553361407E-002
  0.989930288449492       3.493842858236795E-002
  4.046000780851005E-002 -3.758471011329519E-002
  4.678595264642837E-002 -3.955706084831479E-002
   1.05223434522362       1.350986398744634E-002
 -4.673459423236061E-003 -2.810657719933313E-002
  5.432327630800934E-003 -3.577134224836446E-002
   1.00784334735263      -3.017181419605009E-002
   1.02884643811558      -2.484956111963130E-002
  0.964104811503561       1.528775078631361E-002
  0.969116804246402       2.639678992069889E-002
 -6.901180983809620E-003 -3.543615700784891E-002
   1.05880721416648       1.081850423338653E-002
   1.00410644477859      -2.578444570347596E-002
  3.593367125164507E-002 -4.180470768221921E-002
  0.960190206406143       1.963942768054892E-002
  0.976064532234921      -2.888587024995246E-002
   1.04892002866660      -1.926186263800575E-002
  0.999286978762146      -3.694692961622547E-002
   1.05878181400602      -1.086117796064029E-002
  4.189491390571710E-002  3.892170364663038E-002
  3.735449404093565E-002  4.353888001436801E-002
   1.00610437290715      -3.626556746465667E-002
  0.993492738534511      -3.664401669095583E-002
  0.995602850550546      -4.262862758790121E-002
   1.00821209005524       3.189410018071017E-002
  0.970016353458905      -2.827104783733279E-002
  0.972316188544606      -3.476060119021403E-002
  1.143969829868473E-002 -4.249948910543237E-002
  4.759256980988231E-002  4.099636325775628E-002
 -5.333476481665642E-003  3.648192726947527E-002
  0.962493990486860       2.567166144314049E-002
  0.941946054879734      -1.395402347125843E-002
  0.946027219025494      -2.001100626708643E-002
   1.04893798949642       1.930041122985110E-002
  0.941620485914093       1.399863132871038E-002
  0.945561051323657       1.965149108197166E-002
  0.965384492671714       3.196217171631803E-002
   1.02957110224717       2.472924763322567E-002