 variables = "x" "y" 
 zone t="0" n=        2335 e=        4433
 zonetype=fetriangle datapacking=point
  0.994749600000000      -7.798401000000000E-004
  0.988950600000000      -1.630371000000000E-003
  0.982543800000000      -2.556428000000000E-003
  0.975462800000000      -3.561517000000000E-003
  0.967635000000000      -4.658313000000000E-003
  0.958979600000000      -5.860153000000000E-003
  0.949405000000000      -7.173257000000000E-003
  0.939087800000000      -8.572679000000000E-003
  0.928222800000000      -1.002950000000000E-002
  0.916777500000000      -1.154348000000000E-002
  0.904717300000000      -1.311399000000000E-002
  0.892005700000000      -1.474203000000000E-002
  0.878604500000000      -1.643068000000000E-002
  0.864473100000000      -1.818245000000000E-002
  0.849567700000000      -1.999671000000000E-002
  0.833842400000000      -2.187498000000000E-002
  0.817248600000000      -2.381895000000000E-002
  0.799734200000000      -2.582828000000000E-002
  0.781244000000000      -2.790105000000000E-002
  0.761719300000000      -3.003436000000000E-002
  0.741098300000000      -3.222552000000000E-002
  0.721024900000000      -3.429786000000000E-002
  0.701898100000000      -3.621674000000000E-002
  0.683677600000000      -3.799493000000000E-002
  0.666324900000000      -3.964385000000000E-002
  0.649803400000000      -4.117060000000000E-002
  0.634078300000000      -4.258212000000000E-002
  0.619116700000000      -4.388887000000000E-002
  0.604887300000000      -4.509883000000000E-002
  0.591359500000000      -4.621705000000000E-002
  0.578504000000000      -4.724873000000000E-002
  0.566292900000000      -4.820259000000000E-002
  0.554698900000000      -4.908501000000000E-002
  0.543695100000000      -4.989899000000000E-002
  0.533546700000000      -5.062731000000000E-002
  0.524418600000000      -5.126266000000000E-002
  0.516211200000000      -5.181962000000000E-002
  0.508833600000000      -5.230876000000000E-002
  0.502203500000000      -5.273843000000000E-002
  0.496246100000000      -5.311608000000000E-002
  0.490893600000000      -5.344825000000000E-002
  0.485455400000000      -5.377856000000000E-002
  0.479914400000000      -5.410757000000000E-002
  0.474269800000000      -5.443569000000000E-002
  0.468520600000000      -5.476240000000000E-002
  0.462665200000000      -5.508703000000000E-002
  0.456701700000000      -5.540885000000000E-002
  0.450627700000000      -5.572713000000000E-002
  0.444440400000000      -5.604153000000000E-002
  0.438136600000000      -5.635211000000000E-002
  0.431712700000000      -5.665804000000000E-002
  0.425164800000000      -5.695838000000000E-002
  0.418488900000000      -5.725294000000000E-002
  0.411680900000000      -5.754110000000000E-002
  0.404736500000000      -5.782033000000000E-002
  0.397651700000000      -5.809026000000000E-002
  0.390422200000000      -5.834768000000000E-002
  0.383044100000000      -5.858835000000000E-002
  0.375513900000000      -5.882546000000000E-002
  0.367827300000000      -5.904526000000000E-002
  0.359980500000000      -5.924432000000000E-002
  0.351969700000000      -5.942917000000000E-002
  0.343791100000000      -5.959282000000000E-002
  0.335440500000000      -5.973317000000000E-002
  0.326913700000000      -5.984745000000000E-002
  0.318206700000000      -5.993301000000000E-002
  0.309314800000000      -5.998689000000000E-002
  0.300233500000000      -6.000671000000000E-002
  0.290958200000000      -5.998781000000000E-002
  0.281484000000000      -5.992981000000000E-002
  0.271806000000000      -5.982507000000000E-002
  0.261919200000000      -5.966521000000000E-002
  0.251818500000000      -5.945167000000000E-002
  0.241499000000000      -5.917389000000000E-002
  0.231062700000000      -5.882182000000000E-002
  0.220830700000000      -5.841439000000000E-002
  0.210799500000000      -5.795347000000000E-002
  0.200966500000000      -5.743014000000000E-002
  0.191329500000000      -5.683674000000000E-002
  0.181885300000000      -5.618188000000000E-002
  0.172630500000000      -5.548113000000000E-002
  0.163563700000000      -5.472400000000000E-002
  0.154683500000000      -5.390109000000000E-002
  0.145989100000000      -5.300441000000000E-002
  0.137478600000000      -5.203712000000000E-002
  0.129147000000000      -5.102649000000000E-002
  0.120994100000000      -4.995808000000000E-002
  0.113020600000000      -4.881542000000000E-002
  0.105227200000000      -4.758494000000000E-002
  9.760822000000000E-002 -4.629394000000000E-002
  9.016190000000000E-002 -4.494279000000000E-002
  8.289177000000000E-002 -4.350531000000000E-002
  7.580079000000001E-002 -4.196425000000000E-002
  6.888045000000000E-002 -4.035609000000000E-002
  6.213574000000000E-002 -3.865657000000000E-002
  5.557709000000000E-002 -3.682775000000000E-002
  4.919768000000000E-002 -3.489901000000000E-002
  4.300540000000000E-002 -3.284925000000000E-002
  3.701401000000000E-002 -3.064752000000000E-002
  3.121849000000000E-002 -2.831891000000000E-002
  2.565133000000000E-002 -2.579940000000000E-002
  2.030779000000000E-002 -2.311942000000000E-002
  1.528540000000000E-002 -2.012495000000000E-002
  1.061925000000000E-002 -1.681798000000000E-002
  6.539735000000000E-003 -1.299153000000000E-002
  3.192022000000000E-003 -8.665457000000000E-003
  7.912724000000000E-004 -3.885249000000000E-003
  1.202093000000000E-004  1.302883000000000E-003
  2.063342000000000E-003  6.579851000000000E-003
  5.482745000000000E-003  1.177393000000000E-002
  1.036404000000000E-002  1.661813000000000E-002
  1.660709000000000E-002  2.096221000000000E-002
  2.398981000000000E-002  2.499673000000000E-002
  3.246951000000000E-002  2.883650000000000E-002
  4.209117000000000E-002  3.251834000000000E-002
  5.193347000000000E-002  3.573878000000000E-002
  6.189353000000000E-002  3.858770000000000E-002
  7.195581000000000E-002  4.107989000000000E-002
  8.208330000000000E-002  4.333625000000000E-002
  9.227717000000001E-002  4.533204000000000E-002
  0.102519400000000       4.713942000000000E-002
  0.112803000000000       4.878385000000000E-002
  0.123128400000000       5.024379000000000E-002
  0.133485900000000       5.156446000000000E-002
  0.143868600000000       5.278097000000000E-002
  0.154277200000000       5.386133000000000E-002
  0.164707300000000       5.481753000000000E-002
  0.175153700000000       5.567327000000000E-002
  0.185612000000000       5.645234000000000E-002
  0.196081000000000       5.714444000000000E-002
  0.206559200000000       5.773746000000000E-002
  0.217044100000000       5.824517000000000E-002
  0.227533700000000       5.868140000000000E-002
  0.238026400000000       5.905998000000000E-002
  0.248521600000000       5.937741000000000E-002
  0.259019100000000       5.962026000000000E-002
  0.269518000000000       5.979682000000000E-002
  0.280017700000000       5.991552000000000E-002
  0.290518000000000       5.998477000000000E-002
  0.301018400000000       6.001236000000000E-002
  0.311518700000000       5.998744000000000E-002
  0.322018800000000       5.990718000000000E-002
  0.332518400000000       5.977708000000000E-002
  0.343017200000000       5.960260000000000E-002
  0.353515400000000       5.938919000000000E-002
  0.364012800000000       5.914231000000000E-002
  0.374509200000000       5.885984000000000E-002
  0.385004400000000       5.853437000000000E-002
  0.395498300000000       5.816969000000000E-002
  0.405990900000000       5.776975000000000E-002
  0.416482200000000       5.733847000000000E-002
  0.426972400000000       5.687978000000000E-002
  0.437461200000000       5.639199000000000E-002
  0.447948400000000       5.587188000000000E-002
  0.458434100000000       5.532170000000000E-002
  0.468918300000000       5.474371000000000E-002
  0.479401000000000       5.413944000000000E-002
  0.489882000000000       5.350582000000000E-002
  0.500361300000000       5.284559000000000E-002
  0.510839200000000       5.216292000000000E-002
  0.521315600000000       5.145905000000000E-002
  0.531790500000000       5.073244000000000E-002
  0.542263900000000       4.998462000000000E-002
  0.552735900000000       4.921621000000000E-002
  0.563206200000000       4.842522000000000E-002
  0.573674600000000       4.760977000000000E-002
  0.584141600000000       4.677610000000000E-002
  0.594607300000000       4.592463000000000E-002
  0.605071500000000       4.505283000000000E-002
  0.615534400000000       4.416500000000000E-002
  0.625996400000000       4.326465000000000E-002
  0.636456800000000       4.234330000000000E-002
  0.646916200000000       4.140559000000000E-002
  0.657374600000000       4.045151000000000E-002
  0.667832100000000       3.948096000000000E-002
  0.678288900000000       3.849378000000000E-002
  0.688745200000000       3.749003000000000E-002
  0.699201500000000       3.646998000000000E-002
  0.709658300000000       3.543386000000000E-002
  0.720116000000000       3.438171000000000E-002
  0.730575400000000       3.331325000000000E-002
  0.741037400000000       3.222817000000000E-002
  0.751503100000000       3.112615000000000E-002
  0.761973800000000       3.000679000000000E-002
  0.772451400000000       2.886958000000000E-002
  0.782937800000000       2.771425000000000E-002
  0.793435500000000       2.654087000000000E-002
  0.803947400000000       2.534948000000000E-002
  0.814477000000000       2.414002000000000E-002
  0.825028000000000       2.291239000000000E-002
  0.835604700000000       2.166626000000000E-002
  0.846211800000000       2.040057000000000E-002
  0.856854000000000       1.911405000000000E-002
  0.867536600000000       1.780533000000000E-002
  0.878264700000000       1.647317000000000E-002
  0.889043500000000       1.511765000000000E-002
  0.899877500000000       1.373702000000000E-002
  0.910770600000000       1.232898000000000E-002
  0.921725400000000       1.089169000000000E-002
  0.932743500000000       9.425582000000000E-003
  0.943824700000000       7.931970999999999E-003
  0.954966800000000       6.412390000000000E-003
  0.966164700000000       4.863523000000000E-003
  0.977411000000000       3.286588000000000E-003
  0.988693900000000       1.667757000000000E-003
   1.00000000000000       0.000000000000000E+000
   10.3004800000000        1.98758600000000     
   9.70989700000000        3.89586200000000     
   8.75177100000000        5.64873400000000     
   7.46426000000000        7.17628100000000     
   5.89863100000000        8.41752600000000     
   4.11723600000000        9.32285400000000     
   2.19103800000000        9.85598200000000     
  0.196810700000000        9.99540100000000     
  -1.78589700000000        9.73522500000000     
  -3.67789800000000        9.08543300000000     
  -5.40348300000000        8.07148300000000     
  -6.89339200000000        6.73333000000000     
  -8.08753700000000        5.12388500000000     
  -8.93736500000000        3.30698000000000     
  -9.40778000000000        1.35492800000000     
  -9.47857100000000      -0.654253200000000     
  -9.14527300000000       -2.63982300000000     
  -8.41946000000000       -4.52141800000000     
  -7.32845700000000       -6.22215900000000     
  -5.91447300000000       -7.67166800000000     
  -4.23320000000000       -8.80890100000000     
  -2.35185600000000       -9.58472000000000     
 -0.346770100000000       -9.96408400000000     
   1.69947500000000       -9.92780100000000     
   3.70124200000000       -9.47375200000000     
   5.57335500000000       -8.61748200000000     
   7.23478100000000       -7.39207100000000     
   8.61234000000000       -5.84721500000000     
   9.64426800000000       -4.04750300000000     
   10.2834400000000       -2.06982600000000     
   10.5000000000000       1.748456000000000E-006
  0.843489700000000      -3.587740000000000E-002
  0.529586800000000      -5.962436000000000E-002
  0.600666200000000       5.541328000000000E-002
  0.899908100000000      -2.600405000000000E-002
  0.873203100000000      -3.073247000000000E-002
  0.945568000000000      -1.761644000000000E-002
  0.923938300000000      -2.165858000000000E-002
  0.411645600000000       6.750360000000000E-002
  0.950836600000000       1.773682000000000E-002
  0.516745100000000       6.174835000000000E-002
  0.998320100000000      -6.754267000000000E-003
  0.643282300000000      -5.682039000000000E-002
  0.986637400000000      -8.252013000000001E-003
  0.471706000000000      -6.006890000000000E-002
  0.972603600000000      -1.163713000000000E-002
  9.801635000000000E-003 -2.291710000000000E-002
  0.955444900000000      -1.565036000000000E-002
  0.394281500000000      -6.508754000000000E-002
  0.364093000000000      -6.659967999999999E-002
  0.379504300000000      -6.586097000000000E-002
  0.415359200000000      -6.387659000000000E-002
  0.348035900000000      -6.728107999999999E-002
  0.124052600000000      -5.826050000000000E-002
  0.441584100000000      -6.219558000000000E-002
  0.477404300000000      -5.964170000000000E-002
  0.331285700000000      -6.789112999999999E-002
  0.573304700000000      -5.932736000000000E-002
  0.313811900000000      -6.840783000000000E-002
  0.659515100000000      -5.610899000000000E-002
  0.295577900000000      -6.880965999999999E-002
  0.792458900000000      -4.443652000000000E-002
  0.276545500000000      -6.907275000000000E-002
  0.979969600000000      -9.867041000000000E-003
  0.256666000000000      -6.915583000000000E-002
  0.304793000000000      -6.862472000000000E-002
  0.235948800000000      -6.884049000000000E-002
  0.225559400000000      -6.834485000000000E-002
  0.215377000000000      -6.771914000000000E-002
  0.185985100000000      -6.548453000000000E-002
  0.195584000000000      -6.629256000000000E-002
  0.167377600000000      -6.371831999999999E-002
  0.176592000000000      -6.462630000000000E-002
  0.140814800000000      -6.060652000000000E-002
  0.158341700000000      -6.275037999999999E-002
  4.414650000000000E-002 -3.978027000000000E-002
  2.042950000000000E-002 -2.954390000000000E-002
  3.791121000000000E-002 -3.745885000000000E-002
  4.927030000000000E-003 -1.879878000000000E-002
  2.603644000000000E-002 -3.235886000000000E-002
  3.189808000000000E-002 -3.500386000000000E-002
  7.459389000000000E-004 -1.401669000000000E-002
  0.371879400000000      -6.623794000000000E-002
  0.205385600000000      -6.703792000000000E-002
  0.322641500000000      -6.816239000000000E-002
  0.246395500000000      -6.909388000000000E-002
  0.286166000000000      -6.896030000000000E-002
  0.266710700000000      -6.913898000000000E-002
  0.356150700000000      -6.694736000000000E-002
  0.339749100000000      -6.759645000000000E-002
  0.886909400000000      -2.831798000000000E-002
  0.386961800000000      -6.547765999999999E-002
  0.992667500000000      -6.778506000000000E-003
  0.964463100000000      -1.358339000000000E-002
  0.912239300000000      -2.378543000000000E-002
  0.935039100000000      -1.962157000000000E-002
  0.827392700000000      -3.861467000000000E-002
  0.858744200000000      -3.325144000000000E-002
 -2.563284000000000E-003 -8.562963000000000E-003
  0.499583800000000      -5.859064000000000E-002
  0.549965000000000      -5.987404000000000E-002
  0.773509100000000      -4.752390000000000E-002
  0.694478000000000      -5.442451000000000E-002
  0.733020800000000      -5.223877000000000E-002
  0.599185900000000      -5.851185000000000E-002
  0.627839300000000      -5.745311000000000E-002
  0.488489000000000      -5.879064000000000E-002
  0.512987400000000      -5.907832000000000E-002
  0.453967500000000      -6.134751000000000E-002
  0.465901800000000      -6.049577000000000E-002
  0.100188500000000      -5.419351000000000E-002
  0.428724600000000      -6.303976999999999E-002
  0.520844500000000      -5.934470000000000E-002
  0.422107200000000      -6.345924000000000E-002
  5.055373000000000E-002 -4.192831000000000E-002
  7.788007000000000E-002 -4.948136000000000E-002
  9.259887000000000E-002 -5.270667000000000E-002
  0.107952100000000      -5.562187000000000E-002
  1.493941000000000E-002 -2.641432000000000E-002
  6.389175000000000E-002 -4.592096000000000E-002
  8.515880000000001E-002 -5.114294000000000E-002
  7.081084000000000E-002 -4.774322000000000E-002
  0.482997900000000      -5.921450000000000E-002
  0.115918900000000      -5.698217000000000E-002
  0.753448800000000      -5.032817000000000E-002
  0.493895400000000      -5.852803000000000E-002
  0.401451000000000      -6.469904000000000E-002
  0.132349700000000      -5.947187000000000E-002
  0.561334300000000      -5.965880000000000E-002
  0.447833200000000      -6.177201000000000E-002
  0.505927000000000      -5.882674000000000E-002
  0.613151700000000      -5.801513000000000E-002
  0.539309000000000      -5.985111000000000E-002
  0.676568500000000      -5.531215000000000E-002
 -4.607147000000000E-003 -1.946046000000000E-003
  0.474732800000000       6.438400000000000E-002
  5.420609000000000E-002  4.662857000000000E-002
  0.179643100000000       6.599307000000000E-002
  0.485242500000000       6.376365000000001E-002
  0.390597200000000       6.830356000000000E-002
  0.962034300000000       1.625487000000000E-002
  0.789299400000000       3.708297000000000E-002
  9.348400000000000E-003  2.473585000000000E-002
  0.506247800000000       6.244276000000000E-002
  0.995711300000000       1.008325000000000E-002
  0.917611000000000       2.199865000000000E-002
  0.810359200000000       3.473044000000000E-002
  0.984587100000000       1.317362000000000E-002
  0.928624700000000       2.060658000000000E-002
  0.453713100000000       6.554164000000000E-002
  0.432679400000000       6.658330000000000E-002
  0.684469000000000       4.790838000000000E-002
  0.663523800000000       4.988388000000000E-002
  0.726359000000000       4.376655000000000E-002
  0.705412500000000       4.586863000000000E-002
  0.768291100000000       3.937450000000000E-002
  0.747315300000000       4.160220000000000E-002
  0.852753000000000       2.985006000000000E-002
  0.831498100000000       3.231984000000000E-002
  0.895769800000000       2.470162000000000E-002
  0.874164000000000       2.731333000000000E-002
  0.863436400000000       2.859067000000000E-002
  0.906659300000000       2.336309000000000E-002
  0.939700400000000       1.918614000000000E-002
  0.842108600000000       3.109276000000000E-002
  0.884939600000000       2.601742000000000E-002
  0.736835400000000       4.269223000000000E-002
  0.820916700000000       3.353225000000000E-002
  0.778790200000000       3.823662000000000E-002
  0.799821300000000       3.591411000000000E-002
  0.715885000000000       4.482534000000000E-002
  0.757800000000000       4.049633000000000E-002
  0.611145000000000       5.453219000000000E-002
  0.694940700000000       4.689637000000000E-002
  0.632100400000000       5.272473000000000E-002
  0.673996700000000       4.890429000000000E-002
  0.642575800000000       5.179411000000000E-002
  0.653050200000000       5.084717000000000E-002
  0.590182000000000       5.627653000000000E-002
  0.621619300000000       5.363716000000000E-002
  0.169118000000000       6.516349000000000E-002
  0.579698800000000       5.712048000000000E-002
  0.537736500000000       6.029288000000000E-002
  0.558721300000000       5.875175000000000E-002
  0.569213800000000       5.794649000000000E-002
  0.527242300000000       6.103169000000000E-002
  0.548228700000000       5.953321000000000E-002
  0.148047400000000       6.320126000000000E-002
  0.158584500000000       6.424104999999999E-002
  9.568328000000000E-002  5.595447000000000E-002
  0.137522600000000       6.202709000000000E-002
 -1.189363000000000E-003  1.244378000000000E-002
  6.455953000000000E-002  4.938309000000000E-002
  0.116580200000000       5.931252000000000E-002
  0.127053800000000       6.073404000000000E-002
  8.528645999999999E-002  5.400694000000000E-002
  0.106100800000000       5.771995000000000E-002
  1.643440000000000E-002  3.005024000000000E-002
  7.487844000000000E-002  5.181829000000000E-002
  0.190190100000000       6.672664000000000E-002
  2.457964000000000E-002  3.497728000000000E-002
  3.298877000000000E-003  1.885596000000000E-002
  0.713285500000000      -5.343855000000000E-002
 -3.980503000000000E-003  5.809127000000000E-003
  0.435215800000000      -6.261841999999999E-002
  4.395659000000000E-002  4.346747000000000E-002
  3.386147000000000E-002  3.961187000000000E-002
  0.253540100000000       6.945279000000000E-002
  0.221875200000000       6.841013999999999E-002
  0.211320200000000       6.793391000000000E-002
  0.200757700000000       6.737751000000000E-002
  0.242973000000000       6.917062000000000E-002
  0.232421100000000       6.882033999999999E-002
  0.306292200000000       6.995655000000001E-002
  0.264101100000000       6.966377999999999E-002
  0.285202200000000       6.990660000000000E-002
  0.274655300000000       6.981221000000000E-002
  0.316844900000000       6.990378999999999E-002
  0.295742000000000       6.995522000000000E-002
  0.327392000000000       6.979823000000000E-002
  0.348468700000000       6.945087000000000E-002
  0.369528900000000       6.895464000000000E-002
  0.401123900000000       6.792020999999999E-002
  0.443198100000000       6.607804000000000E-002
  0.464224400000000       6.497633999999999E-002
  0.422162300000000       6.705767000000000E-002
  0.380065400000000       6.864968000000000E-002
  0.358998200000000       6.922009000000000E-002
  0.810400800000000      -4.146704000000000E-002
  0.337933300000000       6.964539000000000E-002
  5.711750000000000E-002 -4.397838000000000E-002
  0.973282900000000       1.473730000000000E-002
  0.495747900000000       6.311538999999999E-002
  0.585912000000000      -5.894731000000000E-002
  0.459989700000000      -6.092207000000000E-002
  0.149484300000000      -6.171360000000000E-002
  0.408474500000000      -6.429040000000000E-002
  0.804778300000000      -6.318306000000000E-002
  0.668941500000000      -7.496535999999999E-002
 -1.897043000000000E-003 -2.054637000000000E-002
  0.398307000000000      -7.302620000000000E-002
  0.161771400000000      -7.339369000000000E-002
  0.854077900000000      -5.176465000000000E-002
  0.219761900000000      -7.952571999999999E-002
  0.135301100000000      -6.959746000000000E-002
 -9.287594000000000E-003 -7.015880000000000E-003
  8.653978000000000E-003 -3.012570000000000E-002
  0.908574800000000      -3.879558000000000E-002
  4.496425000000000E-002 -4.797093000000000E-002
  0.516618300000000      -6.799069000000001E-002
  0.230195000000000      -8.031297000000000E-002
  3.219484000000000E-003 -2.576393000000000E-002
  0.143906800000000      -7.089214000000001E-002
  0.126828800000000      -6.826575999999999E-002
  0.544611300000000      -7.180842000000000E-002
  0.952736000000000      -2.783368000000000E-002
  0.368395000000000      -7.521818000000000E-002
 -6.156705000000000E-003 -1.447424000000000E-002
  0.385720500000000       8.031830000000000E-002
  0.958104400000000       2.960690000000000E-002
  7.436484000000000E-003  3.466643000000000E-002
  0.946901200000000       3.100732000000000E-002
   1.00556000000000       8.318693000000000E-003
  0.375139900000000       8.064447000000000E-002
  0.785344600000000       4.950021000000000E-002
  0.659372700000000       6.216936000000000E-002
  0.913671700000000       3.501433000000000E-002
  0.935762600000000       3.237236000000000E-002
  0.902722100000000       3.629715000000000E-002
  0.575387300000000       6.935139000000000E-002
  0.406853500000000       7.955226000000000E-002
  0.512279100000000       7.392641000000000E-002
  0.648880300000000       6.312594000000001E-002
  0.396291700000000       7.995289999999999E-002
  0.290417500000000       8.177539000000000E-002
  0.774822700000000       5.063460000000000E-002
  2.428848000000000E-002  4.717217000000000E-002
  4.562261000000000E-002  5.626253000000000E-002
  6.190068000000000E-004  2.766511000000000E-002
  0.184094300000000       7.818294000000001E-002
  5.636942000000000E-002  5.933232000000000E-002
  0.596396900000000       6.765867000000000E-002
  0.322236900000000       8.169539000000001E-002
  0.311627700000000       8.177429000000000E-002
  1.435308000000000E-002 -3.382320000000000E-002
   1.00714300000000      -5.362592000000000E-003
  0.686525700000000      -7.509464000000000E-002
  0.868813700000000      -4.829404000000000E-002
  0.445190300000000      -6.909041000000000E-002
  0.920486400000000      -3.591018000000000E-002
  0.924685700000000       3.370702000000000E-002
  0.580037200000000      -7.336265000000000E-002
  0.383667100000000      -7.411456000000000E-002
  0.376118000000000      -7.466911000000000E-002
  0.391062700000000      -7.355703000000000E-002
  0.419207900000000      -7.134293000000000E-002
  0.425892900000000      -7.077548000000000E-002
  0.486225400000000      -6.524567000000001E-002
  0.652201700000000      -7.478895000000001E-002
  0.704995300000000      -7.517256999999999E-002
  0.786465200000000      -6.734693999999999E-002
  0.978330700000000      -1.925839000000000E-002
  0.985166400000000      -1.675059000000000E-002
  0.300394300000000      -7.912152000000000E-002
  0.309547400000000      -7.870227000000000E-002
  0.189874500000000      -7.670000000000000E-002
  0.170962400000000      -7.454744000000001E-002
  0.180320700000000      -7.564781000000000E-002
  0.152749000000000      -7.217656000000000E-002
  2.014779000000000E-002 -3.709656000000000E-002
  3.845235000000000E-002 -4.554001000000000E-002
  2.607157000000000E-002 -4.009855000000000E-002
  3.217837000000000E-002 -4.290897000000000E-002
  0.199645600000000      -7.770054000000000E-002
  0.209613300000000      -7.864179000000000E-002
  0.318503900000000      -7.825807999999999E-002
  0.327270000000000      -7.779198000000000E-002
  0.240886700000000      -8.073346000000001E-002
  0.251460900000000      -8.070504000000001E-002
  0.281482700000000      -7.987432999999999E-002
  0.291042000000000      -7.951324999999999E-002
  0.261707300000000      -8.048236000000000E-002
  0.271702800000000      -8.019901000000000E-002
  0.352470500000000      -7.628612000000000E-002
  0.360515100000000      -7.575722000000000E-002
  0.335850400000000      -7.730650999999999E-002
  0.344248900000000      -7.680357000000000E-002
  0.882778800000000      -4.498024000000000E-002
  0.896017700000000      -4.181680000000000E-002
  0.534194400000000      -7.060607000000001E-002
  0.993437400000000      -1.396607000000000E-002
  0.962338100000000      -2.501860000000000E-002
  0.970782800000000      -2.201860000000000E-002
  0.931785400000000      -3.315618000000000E-002
  0.942560600000000      -3.047075000000000E-002
  0.822113300000000      -5.920192000000000E-002
  0.838527900000000      -5.539803000000000E-002
  0.724508100000000      -7.512628000000000E-002
  0.593040300000000      -7.370591000000000E-002
  0.606729400000000      -7.402419000000000E-002
  0.621129900000000      -7.431324000000000E-002
  0.636275000000000      -7.456995000000000E-002
  0.502491700000000      -6.579412000000000E-002
  0.475040900000000      -6.633437000000000E-002
  0.451383100000000      -6.853478000000000E-002
  0.457462300000000      -6.798172000000000E-002
  0.463430400000000      -6.743087000000000E-002
  0.469289300000000      -6.688185000000001E-002
  5.834989000000000E-002 -5.246375000000000E-002
  0.432449300000000      -7.021086999999999E-002
  0.524903100000000      -6.925375000000000E-002
  5.155513000000000E-002 -5.025482000000000E-002
  7.966165000000000E-002 -5.845041000000000E-002
  8.712385000000000E-002 -6.027485000000000E-002
  9.471731000000000E-002 -6.200738000000000E-002
  0.102458300000000      -6.366956999999999E-002
  6.531586000000000E-002 -5.456061000000000E-002
  7.239492000000000E-002 -5.654535000000000E-002
  0.110403600000000      -6.527363000000000E-002
  0.118541900000000      -6.680788000000000E-002
  0.745390600000000      -7.433352000000000E-002
  0.766640100000000      -7.153940000000000E-002
  0.496668900000000      -6.498605000000000E-002
  0.491491500000000      -6.482236000000000E-002
  0.555891900000000      -7.256551000000000E-002
  0.567693400000000      -7.299924000000001E-002
  0.480686800000000      -6.578820000000001E-002
  0.509176200000000      -6.684008000000000E-002
  0.480686100000000       7.590752000000001E-002
  0.470145700000000       7.651504000000001E-002
  1.531248000000000E-002  4.110123000000000E-002
  0.891836900000000       3.755917000000000E-002
  0.764309500000000       5.175559000000000E-002
 -1.034559000000000E-002  2.420543000000000E-003
  0.848830800000000       4.246349000000000E-002
  0.993476600000000       2.360585000000000E-002
  0.459605300000000       7.709480000000000E-002
  0.449059400000000       7.764657000000000E-002
  0.438507400000000       7.816832999999999E-002
  0.722315100000000       5.609893000000000E-002
  0.680355200000000       6.020807000000000E-002
  0.669864200000000       6.119668000000000E-002
  0.638387000000000       6.406617000000001E-002
  0.711824500000000       5.714875000000000E-002
  0.753803700000000       5.286282000000000E-002
  0.838185900000000       4.366091000000000E-002
  0.881011700000000       3.880465000000000E-002
  0.870239100000000       4.003635000000000E-002
  0.859513500000000       4.125562000000000E-002
  0.743303600000000       5.395589000000000E-002
  0.732807800000000       5.503463000000000E-002
  0.827573500000000       4.484851000000000E-002
  0.816988000000000       4.602684000000000E-002
  0.806423900000000       4.719544000000000E-002
  0.795877300000000       4.835348000000000E-002
  0.606898800000000       6.678465000000000E-002
  0.701334800000000       5.818371000000000E-002
  0.690845300000000       5.920358000000000E-002
  0.627887900000000       6.498938000000000E-002
  0.617391400000000       6.589517000000000E-002
  0.173447800000000       7.741296000000000E-002
  0.162816600000000       7.651690999999999E-002
  0.585891700000000       6.851446000000000E-002
  0.564874700000000       7.016926000000000E-002