TITLE = " "
VARIABLES = "x" "y" "f"
ZONE T="hsample", I=   15, J=    1, K=    1, F=BLOCK
     2.50000000     2.29115469     1.18693727     3.85462966     3.51074382     0.00694961     0.00252205     0.02849219     0.00009436     4.99851994     1.22747796     0.30163390     4.98307250     4.05222428     1.70885840
     1.00000000     1.26428084     0.51812198     1.07608889     0.82601733     1.21800722     0.86986883     1.47766170     0.61261213     0.51792602     1.04009510     1.04398630     1.33103757     1.31394727     0.71626936
     0.84147098     0.93995956     0.25273833     0.97506524     0.85635342     0.65893132     0.36196339     0.83236435     0.11239302     0.85086526     0.70724291     0.56819695     0.96719353     0.99856409     0.52952544
