TITLE = " "
VARIABLES = "x" "y" "f"
ZONE T="lsample", I=   60, J=    1, K=    1, F=BLOCK
     1.33749938     1.60208744     4.78359784     4.09554744     0.61584302     3.47371551     4.48666288     4.00968638     1.71559938     0.74542726     2.81256448     4.93792560     4.63215202     0.24561762     3.67867960     3.81802375     4.52508486     2.18459841     2.12881356     4.71957835     1.53669027     2.48669147     1.49027306     0.51931291     1.17547574     0.97078622     3.25397006     1.97486095     2.73790794     3.60205567     0.83306192     3.02161074     4.29512726     0.28717480     2.29686884     0.05792366     2.35630815     3.97115335     0.84098734     4.39093974     2.52418778     3.85731065     4.90339900     2.01031421     1.85086833     3.54399355     0.39953656     1.09422111     3.15758707     1.81582768     3.36576373     1.30771650     3.20793047     0.10399544     2.85133976     2.63407189     1.01285565     2.98164159     4.20026712     0.47286954
     0.70365522     1.48327920     1.22359004     1.04446830     0.97879055     1.13272261     1.25232221     1.39599653     1.49695961     1.33353387     0.72033670     0.96559974     1.20143595     0.90070133     0.80391171     1.46079080     1.36099748     0.66792824     0.60319451     1.42347124     0.84774732     1.08928442     0.76996501     0.86860992     0.56033595     1.38301092     0.66448322     1.13613251     1.24572584     1.03091919     0.92556015     0.85603579     0.94357923     1.43614516     0.82509497     0.98774609     0.59847165     0.89643783     1.41396854     0.73592479     1.30465957     0.64673289     1.05642401     0.61839941     1.18892987     1.32761273     0.75384776     0.56936211     1.00225404     0.51702048     0.51317386     1.07968485     0.79659876     1.10207931     1.29690587     1.16353944     0.69071454     1.27259306     1.17162671     0.54675362
     0.24481985     0.08723171     0.34475743     0.34821016     0.05537430     0.27506307     0.31209697     0.23920406     0.09244095     0.04730216     0.52358473     0.45298055     0.34288817     0.03396029     0.86568333     0.21389432     0.28079180     0.36964832     0.32391948     0.27474711     0.48406668     0.20843152     0.32889136     0.15361734     0.17027772     0.05828764     0.54385638     0.15444886     0.19131273     0.30940648     0.08108693     0.72535003     0.40540255     0.01681755     0.64593925     0.00473795     0.35662637     0.46323286     0.04957979     0.80904350     0.16631593     0.62402100     0.41359123     0.31214448     0.13734939     0.22749689     0.08798261     0.16003670     0.27867498     0.25236083     0.46614133     0.11150270     0.76304512     0.00469527     0.18839376     0.19808526     0.17986010     0.20352120     0.31665341     0.06888365
