TITLE = " "
VARIABLES = "x" "y" "f"
ZONE T="hsample", I=   15, J=    1, K=    1, F=BLOCK
     2.50000000     2.56249071     4.03131159     1.75396759     0.18321162     2.99144659     4.99121753     4.95438244     0.97820303     3.27434356     4.77531328     4.89729563     4.07329708     2.25890908     3.28846607
     1.00000000     1.09752907     1.42114655     0.70998864     0.77905913     0.51132760     1.18073646     0.91495294     0.97372782     0.75647774     0.83296801     0.65452799     0.70120486     0.53521489     0.50417697
     0.22128658     0.21040836     0.23539376     0.32447804     0.04580293     0.41368307     0.37527986     0.49579739     0.08875397     0.66330826     1.02591560     0.77634600     0.70740005     0.31899973     0.45197463
