 variables = "x" "y" 
 zone t="0" n=        9944 e=       19548
 zonetype=fetriangle datapacking=point
  -19.9782054645671       -20.0198897452449     
  -16.7460447536127       -20.0166090208427     
  -13.5432470514743       -20.0133581006329     
  -10.4462771124608       -20.0102145982639     
  -7.39483127129757       -20.0071173039990     
  -4.39431260318683       -20.0040717020955     
  -1.43672854734527       -20.0010696799032     
   1.47853524247441       -19.9981106138451     
   4.40194279230921       -19.9951432816657     
   7.38347804238703       -19.9921169484089     
   10.4122197804982       -19.9890426993796     
   13.5308676756442       -19.9858771933400     
   16.7310607632789       -19.9826289168794     
   20.0189460056259       -19.9792916306765     
   20.0156650185539       -16.7468721381521     
   20.0123451374732       -13.4761343745905     
   20.0090067226427       -10.1871372114327     
   20.0056742799471       -6.90402377924537     
   20.0022854763303       -3.56538372157089     
   19.9988742323503      -0.204635479404095     
   19.9954939648514        3.12559481819934     
   19.9920871178897        6.48201112987894     
   19.9886881104951        9.83070392161462     
   19.9853470049941        13.1223519259840     
   19.9820070605281        16.4128560818164     
   19.9783478910574        20.0178598395165     
   16.7317203104092        20.0145644308778     
   13.4557822172063        20.0112392713317     
   10.1645634122701        20.0078986014789     
   6.87452312340184        20.0045591278496     
   3.53259687976399        20.0011669886714     
  0.170578499054329        19.9977544554688     
  -3.16443525887912        19.9943693326374     
  -6.48474521199279        19.9909991345377     
  -9.79114624567630        19.9876430543410     
  -13.0836966857758        19.9843010328450     
  -16.3754018560739        19.9809598693192     
  -20.0188035791356        19.9772617249480     
  -20.0155069002833        16.7293827334232     
  -20.0121812769038        13.4529876727648     
  -20.0088400757232        10.1612454051086     
  -20.0054989473046        6.86957482234720     
  -20.0021446450312        3.56492539391732     
  -19.9987763328347       0.246473427480958     
  -19.9953939522161       -3.08583870985736     
  -19.9920253568386       -6.40456966542458     
  -19.9886729196427       -9.70738162471593     
  -19.9853365630757       -12.9943509922900     
  -19.9819979716434       -16.2835221430568     
   1.00000000000000       0.000000000000000E+000
  0.998488255820266      -2.161911218776069E-004
  0.996980761990898      -4.313653737252343E-004
  0.995483329153391      -6.447005039413256E-004
  0.993941324034136      -8.639672934342757E-004
  0.992338447340855      -1.091441243279351E-003
  0.990669851487089      -1.327757770171645E-003
  0.988939987601710      -1.572232035394738E-003
  0.987148726030035      -1.824828185706590E-003
  0.985293731280350      -2.085818626302549E-003
  0.983361022475878      -2.357103754048190E-003
  0.981359103898203      -2.637418379725853E-003
  0.979271810071490      -2.928948208285279E-003
  0.977111776302216      -3.229846365352740E-003
  0.974875142779336      -3.540570846791337E-003
  0.972554505046090      -3.862061912171119E-003
  0.970147305536276      -4.194577015482176E-003
  0.967652713673155      -4.538129161035853E-003
  0.965068406012352      -4.892931758918570E-003
  0.962394734888535      -5.258825708848461E-003
  0.959626721880333      -5.636375564338305E-003
  0.956756563571936      -6.026517034008999E-003
  0.953773153448946      -6.430614131829848E-003
  0.950667080202325      -6.849776510812630E-003
  0.947467020223522      -7.279979314308503E-003
  0.944151326588211      -7.723979179023214E-003
  0.940687461935368      -8.185931973566176E-003
  0.937117746970243      -8.659995172080364E-003
  0.933430070086747      -9.147599458502517E-003
  0.929602976253138      -9.651370459884354E-003
  0.925601565634650      -1.017563404642377E-002
  0.921456428152238      -1.071610247310608E-002
  0.917162293177508      -1.127319969358169E-002
  0.912705259923535      -1.184844016320902E-002
  0.908076328263423      -1.244266554229202E-002
  0.903269016756258      -1.305636298161591E-002
  0.898276763137896      -1.369000177006644E-002
  0.893086948831136      -1.434478341809267E-002
  0.887686767954816      -1.502188277781593E-002
  0.882068501124962      -1.572178956006977E-002
  0.876224320490923      -1.644496741084216E-002
  0.870155295353845      -1.719074882427560E-002
  0.863854127361603      -1.795947162243757E-002
  0.857312797051588      -1.875151807041847E-002
  0.850521217379893      -1.956747037831955E-002
  0.843470451532251      -2.040771603501060E-002
  0.836151939870060      -2.127254112856353E-002
  0.828559232143343      -2.216192685493863E-002
  0.820683833627305      -2.307603709611900E-002
  0.812517416829062      -2.401495050290263E-002
  0.804051544851044      -2.497868813388641E-002
  0.795277330046253      -2.596724584656415E-002
  0.786187087459476      -2.698040227807212E-002
  0.776771891548890      -2.801798718518191E-002
  0.766907535098275      -2.909220955353902E-002
  0.756682976090072      -3.019175608281707E-002
  0.746086821855032      -3.131629801235695E-002
  0.735108447482167      -3.246527326326526E-002
  0.723740906786819      -3.363757768970013E-002
  0.711971909476691      -3.483248483279486E-002
  0.699788908043541      -3.604907740111248E-002
  0.687184761085897      -3.728566769302447E-002
  0.674147839869206      -3.854076028107604E-002
  0.660664378381261      -3.981275703144915E-002
  0.646727156123802      -4.109910140419665E-002
  0.632322861421316      -4.239742562030543E-002
  0.617434999196601      -4.370517670778076E-002
  0.602052657447560      -4.501877132456203E-002
  0.586155410532738      -4.633481564030540E-002
  0.569730989843616      -4.764849088129109E-002
  0.552764125717350      -4.895439645914082E-002
  0.535844142364804      -5.020258498689777E-002
  0.518888906079776      -5.139657185267092E-002
  0.501866158189287      -5.253524046131682E-002
  0.484775945816628      -5.361469950023432E-002
  0.467617814818311      -5.463071803575704E-002
  0.449742412396673      -5.561289506670095E-002
  0.432464712374615      -5.648383025155936E-002
  0.415782854739534      -5.724718947917348E-002
  0.399694860583434      -5.790689865671151E-002
  0.384184530903523      -5.846762599182245E-002
  0.369167004658950      -5.893599215490578E-002
  0.354623742688590      -5.931562278039627E-002
  0.340550503197661      -5.960974856384597E-002
  0.326955959507365      -5.982159014729108E-002
  0.313824981794808      -5.995498120636070E-002
  0.301158507701292      -6.001364144295804E-002
  0.288957384871910      -6.000155404239009E-002
  0.277203263326691      -5.992277792939193E-002
  0.265871050813096      -5.978107655137295E-002
  0.254913242850645      -5.957936249732733E-002
  0.244317182241807      -5.932056518761835E-002
  0.234070445516820      -5.900749035176273E-002
  0.224165749017608      -5.864300957387631E-002
  0.214594979286176      -5.822993467909700E-002
  0.205346444050076      -5.777083760537995E-002
  0.196408895239085      -5.726816273160756E-002
  0.187777730257531      -5.672464119267306E-002
  0.179436692086804      -5.614216714197853E-002
  0.171376093966928      -5.552284812606211E-002
  0.163578924563846      -5.486800516222705E-002
  0.156038356065003      -5.417955522334480E-002
  0.148748006370722      -5.345937396621708E-002
  0.141701787722724      -5.270928944640663E-002
  0.134893499007328      -5.193103943586590E-002
  0.128316256903956      -5.112618917458977E-002
  0.121964506830428      -5.029636795725646E-002
  0.115833056946898      -4.944317991859546E-002
  0.109916617173764      -4.856814481282483E-002
  0.104210672258499      -4.767283023339399E-002
  9.871087062384630E-002 -4.675877891323905E-002
  9.341305110887016E-002 -4.582751887394634E-002
  8.831375840654888E-002 -4.488066920625576E-002
  8.340929271850218E-002 -4.391978417282118E-002
  7.869592722358772E-002 -4.294638737022510E-002
  7.425210034630272E-002 -4.198030489149401E-002
  6.997052484119105E-002 -4.100155662556056E-002
  6.585290701830360E-002 -4.001227805197639E-002
  6.189753078916227E-002 -3.901391448771701E-002
  5.810456641907024E-002 -3.800846611790214E-002
  5.445190670123520E-002 -3.699173214721580E-002
  5.095128851301740E-002 -3.596855439317655E-002
  4.760064728459987E-002 -3.494023383546237E-002
  4.438218063529025E-002 -3.390291023719216E-002
  4.126650578586719E-002 -3.284769481574915E-002
  3.825045867852315E-002 -3.177327071100376E-002
  3.531097615773750E-002 -3.067031735451929E-002
  3.244831426029011E-002 -2.953687698090357E-002
  2.966748389063895E-002 -2.837260883193028E-002
  2.697123431426512E-002 -2.717608843654935E-002
  2.436344117047068E-002 -2.594610361085026E-002
  2.185015513980413E-002 -2.468227682574874E-002
  1.943896086753936E-002 -2.338501091929773E-002
  1.725007847420689E-002 -2.212230858399659E-002
  1.513973047694222E-002 -2.081324194448450E-002
  1.312766596857910E-002 -1.946358004912117E-002
  1.123289802714405E-002 -1.808071040799030E-002
  9.480553261091377E-003 -1.668015351837086E-002
  7.804140008044419E-003 -1.519892884217227E-002
  6.165282220451195E-003 -1.357136862142624E-002
  4.668249176257772E-003 -1.186483526113720E-002
  3.302415150683022E-003 -1.002848925241008E-002
  2.104749757294857E-003 -8.047548662113581E-003
  1.135216394704874E-003 -5.941941731412599E-003
  4.645045705641908E-004 -3.820967718360665E-003
  1.144749000794249E-004 -1.905729538830852E-003
  0.000000000000000E+000  0.000000000000000E+000
  1.842679454176746E-004  2.414878564681606E-003
  7.260705322856365E-004  4.765997832659178E-003
  1.579826213981030E-003  6.991044551301197E-003
  2.659219347624892E-003  9.022835439309573E-003
  3.893576537798714E-003  1.086496929039373E-002
  5.228322994096219E-003  1.253354589454581E-002
  6.850891376596926E-003  1.427778383666140E-002
  8.565402277599473E-003  1.589124120964850E-002
  1.038565914210023E-002  1.742000450848528E-002
  1.222761656632856E-002  1.882177401189537E-002
  1.411919181822570E-002  2.014238801151889E-002
  1.610655326146709E-002  2.142524575597950E-002
  1.823891175108579E-002  2.270370629375819E-002
  2.048354654615423E-002  2.395812608892329E-002
  2.285007437826962E-002  2.519510048770872E-002
  2.528022597569518E-002  2.638732773680144E-002
  2.778121686125878E-002  2.754308677594302E-002
  3.039607841145406E-002  2.868413168602518E-002
  3.316365813055720E-002  2.982598462868607E-002
  3.608159764371920E-002  3.096515107213477E-002
  3.913971990461558E-002  3.209580567700646E-002
  4.232630160082011E-002  3.321258007955021E-002
  4.563071439805354E-002  3.431138969438483E-002
  4.904130124061448E-002  3.538853856748200E-002
  5.255471360215787E-002  3.644341711663874E-002
  5.617081424503033E-002  3.747639292289680E-002
  5.988236467948956E-002  3.848584970728864E-002
  6.404513761431854E-002  3.956206763669428E-002
  6.835379625456380E-002  4.061895495959143E-002
  7.280585354268250E-002  4.165514735075101E-002
  7.739826872554537E-002  4.266929224615346E-002
  8.206312734475532E-002  4.364693465419258E-002
  8.686886774439605E-002  4.460286577980838E-002
  9.184156643015884E-002  4.554116801396614E-002
  9.697924629780683E-002  4.646004418167735E-002
  0.102284070683571       4.735851798818077E-002
  0.107746482313361       4.823376408519157E-002
  0.113385838308485       4.908759589616623E-002
  0.119242912232928       4.992417826191580E-002
  0.125367202059990       5.074753194823645E-002
  0.131771820356732       5.155573511050559E-002
  0.138460136360071       5.234549093133283E-002
  0.145428890675473       5.311285502403320E-002
  0.152679499162220       5.385460343256854E-002
  0.160215238893671       5.456778810316149E-002
  0.168037321202666       5.524933606602117E-002
  0.176149876179156       5.589650370575196E-002
  0.184556565794074       5.650653564797287E-002
  0.193262018432375       5.707677178335850E-002
  0.202450889381161       5.761448661676767E-002
  0.211982387810798       5.810635239971668E-002
  0.221862467419691       5.854918823463946E-002
  0.232100402571604       5.893994276950832E-002
  0.242704687489869       5.927547618706600E-002
  0.253682694584793       5.955258782668156E-002
  0.265045021893535       5.976812981591693E-002
  0.276802682421060       5.991888984643500E-002
  0.288963467231382       6.000157744602337E-002
  0.301538478396521       6.001291815014544E-002
  0.314540339756488       5.994958176423771E-002
  0.327976870157526       5.980823684645836E-002
  0.341858328568455       5.958556049400759E-002
  0.356198496369361       5.927815497534694E-002
  0.370998045502651       5.888295303596847E-002
  0.386268027860175       5.839675683166824E-002
  0.402014946835827       5.781656280937374E-002
  0.418224699144158       5.714038548780782E-002
  0.434908044462684       5.636551927180206E-002
  0.452007858781603       5.549288401666827E-002
  0.469516208353419       5.452175940650079E-002
  0.487106383008170       5.347138696945079E-002
  0.504570952907477       5.235846198574606E-002
  0.521907961483277       5.118825433957328E-002
  0.539119573520359       4.996529214942916E-002
  0.556209275450353       4.869354620197668E-002
  0.572857482341719       4.740211443532794E-002
  0.589040006177506       4.609921901627986E-002
  0.604736568670243       4.479238137547144E-002
  0.619945595406950       4.348712305353374E-002
  0.634668701510597       4.218817550695150E-002
  0.648869354640367       4.090329373229119E-002
  0.662558561902606       3.963568527959708E-002
  0.675751267503602       3.838772252578196E-002
  0.688465089887837       3.716108767240774E-002
  0.700720084025820       3.595682639305532E-002
  0.712567564472108       3.477247020196376E-002
  0.724049287988847       3.360600987346853E-002
  0.735173090038521       3.245855611415960E-002
  0.745947075625922       3.133102690000244E-002
  0.756373234245050       3.022484452684564E-002
  0.766459830398556       2.914065200740309E-002
  0.776215562784734       2.807892125688212E-002
  0.785649135595599       2.704000931102325E-002
  0.794682026197117       2.603393816281277E-002
  0.803383624472688       2.505430778049941E-002
  0.811758703765574       2.410171915625269E-002
  0.819813131169097       2.317657842412242E-002
  0.827551537472418       2.227936724025508E-002
  0.834978254233673       2.141054354963753E-002
  0.842100548728743       2.057016325562510E-002
  0.848981356703445       1.975157048515897E-002
  0.855650750659097       1.895179963288313E-002
  0.862111845280597       1.817102599184401E-002
  0.868368458636267       1.740931349071240E-002
  0.874424494503302       1.666668875614095E-002
  0.880283980625203       1.594313714449812E-002
  0.885950239822267       1.523870666114471E-002
  0.891426413121406       1.455344609270196E-002
  0.896715979831467       1.388734076102205E-002
  0.901823325566936       1.324023968410652E-002
  0.906756233429929       1.261153444392790E-002
  0.911519278480122       1.200099683275717E-002
  0.916116989556916       1.140838287876009E-002
  0.920358994020312       1.085874758166392E-002
  0.924484468342013       1.032155033045174E-002
  0.928491515913811       9.797244474785782E-003
  0.932383033444858       9.285652675692693E-003
  0.936143983663937       8.788960543543880E-003
  0.939771336910404       8.307788391750264E-003
  0.943271484924639       7.841500211191102E-003
  0.946636621604070       7.391343403489786E-003
  0.949870378345306       6.957037314611972E-003
  0.952988187015976       6.536693663187742E-003
  0.955965813404375       6.133765106368705E-003
  0.958809953952680       5.747537696832006E-003
  0.961577352542665       5.370447079231377E-003
  0.964264937165007       5.003012660054998E-003
  0.966870858916475       4.645589297891572E-003
  0.969393859949400       4.298451397539177E-003
  0.971833362459408       3.961779111040562E-003
  0.974190554720452       3.635506214778994E-003
  0.976466493990152       3.319580243521083E-003
  0.978664522608530       3.013626050632623E-003
  0.980788575918958       2.717178157096239E-003
  0.982790219079032       2.437100282335172E-003
  0.984737015057623       2.164029021653169E-003
  0.986614222358805       1.900092530292102E-003
  0.988426626281954       1.644681736140269E-003
  0.990178225075969       1.397290929035522E-003
  0.991870332868976       1.157788169985613E-003
  0.993498491553820       9.268579787067854E-004
  0.995063991244664       7.043706024752571E-004
  0.996569371095497       4.900150654954805E-004
  0.998070800285996       2.758180612794370E-004
 -1.198220454855734E-003 -1.049785774712429E-003
 -9.404474543992422E-004 -3.172290158003930E-003
 -1.206626338181733E-003  1.215944245203246E-003
  0.996260214802548      -1.724065659859486E-003
  0.997698003645687      -1.887445189714326E-003
  0.996256320358894      -3.526764908306764E-003
  0.997453862361358       1.784482839951403E-003
 -2.650364416807665E-003 -5.238196392839331E-005
 -4.158204408901457E-004 -5.334947821090422E-003
  0.995884401436403       1.943345079753328E-003
  0.996662111705520       3.307051023066263E-003
 -2.098318180723124E-003 -4.619846397245150E-003
  0.994874907324571      -2.196009282422186E-003
 -2.486197560348243E-003 -2.328139492246964E-003
  0.994332678227446       2.141938479714436E-003
  0.992667134871946       2.373522693609736E-003
 -9.249110528555448E-004  3.731555929821898E-003
  0.993161901534134      -2.541254028100676E-003
  0.994142919522244      -4.036044722788347E-003
 -2.632765748998795E-003  2.403692519374060E-003
 -4.101756668267315E-003 -1.354701795015950E-003
  0.995185381793519       3.210273467813957E-003
  0.995340971119302       4.953035495262937E-003
  0.999098125593763       1.566968837105582E-003
 -1.429686476112884E-003 -6.974497155243579E-003
  3.985766482921028E-004 -7.556673553302652E-003
  0.991418933886768      -2.790873935186755E-003
  0.989655887705639      -2.997889561558950E-003
  0.987888928886826      -3.152467428433060E-003
  0.992261732514019      -4.303053113226356E-003
  0.998398876861648       3.101049478801119E-003
  0.993662539748981       3.698419681668922E-003
  0.991441577138742       3.946174874455813E-003
 -2.251726489990872E-004  6.275962917399169E-003
 -2.379104449002377E-003  5.440189004039525E-003
 -4.240116183772056E-003  9.122638864635915E-004
  0.993149137289682      -5.910068378369776E-003
  0.997639717964169       4.817536894534563E-003
   1.00074995152566       1.455677786685955E-003
  0.998410043136441      -3.697561394938082E-003
   1.00143863912871      -3.581299016631436E-004
 -3.383985623776183E-003 -6.235668670789313E-003
  1.485858235301181E-003 -9.755025849910424E-003
  0.996757038848296       6.826741125005904E-003
  0.997221841011243      -5.606386160450851E-003
  0.999765594203918      -1.773917156824393E-003
  0.989706367789132       2.881883385911430E-003
  0.990438519785447      -4.493602907942759E-003
  0.988593991466926      -4.645912311181359E-003
  0.986687223805595      -4.648638862154325E-003
  0.991174107144539       2.352059716131925E-003
  0.992950883741580       5.587545619384792E-003
  8.023867499894105E-004  8.569767579692104E-003
 -1.142234706364952E-003  8.037088548176013E-003
  3.331532350506776E-003  1.268945534771077E-002
   1.00253687514882       1.315586349014486E-003
  0.990688152770618       6.067290634177889E-003
 -5.566510338232843E-003 -4.191013248904633E-004
  2.810869799634054E-003 -1.186594531536695E-002
  0.991273494961923      -6.032246818019034E-003
  0.987811204278554       3.306753800495920E-003
  0.989205994202101       4.651833633587390E-003
  1.984485180384364E-003  1.069248164627772E-002
 -4.363251863908330E-003  3.480802592265710E-003
  0.992014300052522      -7.711916054162177E-003
   1.00018458742569      -3.859912381711052E-003
  0.999600849123910       4.351267470713980E-003
  4.340066862180781E-003 -1.385698375591302E-002
  0.989448351717441      -6.194725094018813E-003
 -2.562787574137284E-003 -8.803682175209920E-003
 -3.885672066691927E-003 -3.720485327727776E-003
   1.00345235240483      -6.579788642836665E-004
   1.00150416445414       3.344566156533493E-003
  0.995153396051267      -5.714549550099302E-003
  0.999276788830273      -5.596915476739229E-003
   1.00134650278687      -5.365188115677889E-003
  0.994052508849513      -7.635662252206624E-003
  7.787577959860498E-003 -1.727826391516118E-002
 -2.875628126742258E-003  7.719430437401168E-003
  0.999877368659208       2.773392039899957E-003
  0.999005027814470       6.372217288455714E-003
  6.035624978235945E-003 -1.569484457898659E-002
  0.985834743761012       3.637536691694653E-003
  0.983837580073770       3.865846830126449E-003
  0.992093536842582       7.640331743952923E-003
  0.998234324946935       8.591176333875088E-003
  0.987093369725706       5.117995159837465E-003
 -6.079006501548428E-003  1.661823153386278E-003
  0.988502470795711       6.572815484022245E-003
  9.495848494891122E-003 -1.871077788789472E-002
 -4.659594697001558E-004 -9.354866654276201E-003
  7.815487092189405E-004 -1.170444390526788E-002
 -5.452065820164533E-003 -5.284823527919993E-003
  0.984600692362141      -4.178892874133288E-003
   1.00371582627982       2.957226272494736E-003
  0.987468735467150      -6.415502170567119E-003
  0.985271284645840      -6.453901934044556E-003
  0.998108729241691      -7.594902605233263E-003
  0.996080645483712      -7.517368423009419E-003
 -1.424913114488190E-003 -1.137231715770343E-002
   1.00431381867465       1.087386120904764E-003
   1.00618782865276       2.240755015488884E-003
   1.00206756606061      -2.837329724626796E-003
  0.984936232267256       5.458164810535951E-003
  0.982676223468052       5.562934791575353E-003
   1.00113161675806       5.654861190346219E-003
  0.994413910889187       7.230869315434527E-003
  0.986301625751526       7.069480847042169E-003
 -4.801468386072367E-003 -8.076974610594763E-003
  6.045245253961226E-003 -1.804831611909306E-002
  1.252921326341281E-003  1.260215568532399E-002
  7.850870303359058E-003 -1.919362020534724E-002
 -7.191877351470341E-003 -7.142943053217408E-003
 -2.121988404638384E-003  9.811961381465888E-003
  1.921228881503288E-005 -1.390567900855347E-002
 -3.535745142546961E-005  1.034031892758670E-002
  2.296183649382367E-003 -1.397720705823680E-002
  0.995038616815935      -9.399945816713006E-003
   1.00287724498761       4.786103260829486E-003
  0.995832241229924       9.028335922855254E-003
  0.988593071538486      -8.126068182038470E-003
  0.992867373656827      -9.574998176045351E-003
  0.982231724033330      -4.432603191572230E-003
  0.980080626488595      -4.626195219235316E-003
  0.983058244765051      -6.365012179371915E-003
  4.065487372099626E-003 -1.612772152523048E-002
 -5.726318327813727E-003 -2.565139282082052E-003
 -7.644237078098015E-003 -7.219008324048961E-004
  0.977937505127404      -4.826353499280449E-003
  0.989911918785247       8.004890326672787E-003
  4.867033846044154E-003  1.459859177237583E-002
  0.986322263762666      -3.156497679635617E-003
  0.991116335527216       9.596265659406269E-003
  0.994005662915476      -1.150992814303768E-002
   1.00062665179282       7.986439781766122E-003
  0.999841700998253       1.043690236333254E-002
  2.752401565128401E-003  1.477714950249334E-002
   1.00565503273144      -5.113941367926233E-004
   1.00463439246073      -2.840840286823047E-003
  0.996880495543475      -9.142276666669495E-003
  0.998830667718722      -1.009830455153305E-002
  6.615933173422898E-003 -2.097904139089894E-002
   1.00031680780593      -7.590497469157043E-003
   1.00261446804520      -7.287798183616172E-003
  1.131168355507853E-002 -2.027540322001217E-002
   1.00317563518432       7.056325423015381E-003
   1.00715367662362      -2.843137773452539E-003
   1.00487453793318       4.874771135015775E-003
   1.00747354088929       4.889358310876387E-003
  0.990399871696306      -9.580837967260242E-003
  0.993424886049953       9.374904996106879E-003
  0.989229191922422       9.633636987437582E-003
  1.776022851591187E-003 -1.638010633374756E-002
  6.576383286902632E-003  1.643087177915595E-002
  0.990344242816455      -7.521274958465552E-003
  0.986246038997698      -8.527750084866408E-003
  0.983599042079266      -8.716992334582290E-003
  9.290425825211003E-003 -2.089336954730018E-002
 -6.357322538097490E-003  4.446644957179681E-003
 -4.264925818440199E-003  8.918922165683924E-003
 -2.459258967218420E-003 -1.364219978521753E-002
 -3.794756630523395E-003 -1.087184592025395E-002
  0.991680067174808      -1.168125447582506E-002
  0.992795766963991      -1.377813827607745E-002
  0.980943895161367      -6.357459094093127E-003
  0.978754726633920      -6.584686211642373E-003
  0.976381199962085      -6.680956228473452E-003
  1.029218843655290E-002  1.966365906453430E-002
  0.992241322127422       1.151992367001875E-002
  0.996327639709409      -1.111410733284277E-002
  0.995308054294665      -1.354937034955902E-002
  0.997308728739891       1.092069955987753E-002
  4.448552809232335E-003  1.684504407781468E-002
  1.219652236545716E-002  2.106569033477805E-002
  0.987835065482626       8.526572249434160E-003
  0.987523035097057       1.064359901597006E-002
   1.00352934160172      -5.080735782265532E-003
  0.989627402935276      -1.181972104141419E-002
  8.403359315270318E-003  1.812824706997910E-002
  0.987671224214931      -1.071403732778328E-002
 -4.450206435592005E-003  6.262302343726208E-003
 -8.251519508191630E-003  2.477406252216119E-003
  0.981735690160517      -7.907530339771797E-003
  0.980267781306308       4.967241844025467E-003
  1.333807471766748E-002 -2.182406926718101E-002
  0.982070166502867       3.907700117340905E-003
  0.977758823305755       5.117640949590170E-003
 -6.424090187887436E-003  7.356623434799188E-003
  0.985576963037061       9.261861954637995E-003
 -7.635721860261117E-003 -4.046914115554376E-003
  1.135767702100686E-002 -2.274480177681122E-002
  0.994785067917605       1.127281625931143E-002
 -3.413813074478422E-003  1.168364207825593E-002
  3.899614957753088E-003 -1.874376015726662E-002
  0.975461160691659       5.443948327096845E-003
  1.024843874088783E-002  2.195986884994103E-002
 -9.841727373010138E-004  1.228117172885305E-002
  4.548440219482954E-004  1.473101457376425E-002
  1.414799070093984E-002  2.244384422887067E-002
 -8.055583941933013E-004 -1.639694396469019E-002
  6.308937774594533E-003  1.877259670306057E-002
  0.978877007768077       6.760736038463540E-003
 -6.323483467062685E-003 -1.021418323100464E-002
 -9.066671666909833E-003 -9.401628707158662E-003
  8.278808759366712E-003  2.050330100088029E-002
   1.00586793238165      -5.207167926970673E-003
   1.00875825736749      -5.693164339280632E-003
  0.979838601559852      -8.303363285884127E-003
  0.977391705229883      -8.817249565887081E-003
  0.974287546298262      -9.167514729322621E-003
  0.984912290361429      -1.084971044099911E-002
  0.982774130726806      -1.096989863699380E-002
  0.994041237926234      -1.607035646239649E-002
 -2.048488576091596E-003  1.443491970499781E-002
  1.212821402325910E-002  2.333363954450987E-002
 -9.948487968441343E-003 -2.619742929899335E-003
  0.976835151276361       7.198118722842563E-003
  0.974452637290387       7.621771899087306E-003
  1.548349792955439E-002 -2.327183885509420E-002
  4.022821685673472E-003  1.928003007207153E-002
  9.069727866045818E-003 -2.355752482412250E-002
  1.027042256807201E-002  2.401818080834359E-002
  0.973088447988272       5.767314761625085E-003
  0.970684727878182       6.002346923088511E-003
 -8.532255584473831E-003  5.476545885728623E-003
 -1.063194290472396E-002  3.490338065144452E-003
 -4.068761142994039E-004  1.707296553025268E-002
  1.357963472803367E-002 -2.437699085826043E-002
  0.983912242460131       7.483156290601751E-003
  0.981064012111281       7.698551997341829E-003
  0.982966343883643       9.867463863360836E-003
  0.980319396834173       1.042646963041841E-002
  0.981280799142550      -9.757752106147882E-003
  0.980835019256553      -1.211322278517896E-002
   1.00916148665819       2.423464494956018E-003
   1.00587370493885       7.176164516960318E-003
 -6.273914455121256E-003  1.063735397282923E-002
  1.205310462331161E-003 -1.918103034253351E-002
   1.00238842898268       9.777222603306121E-003
   1.00161464884853       1.241722537496524E-002
  0.984977130527739       1.200087463181776E-002
   1.00455366136378      -6.913097006695463E-003
   1.00420577707283      -9.149173767973889E-003
  0.971939239480345       7.919337693619374E-003
  1.771798787792661E-002 -2.464433942914583E-002
  0.981999612162262       1.234057356172191E-002
  0.983396419636673       1.409869832025810E-002
  1.150885294340087E-002 -2.547877227615864E-002
  0.998892380241648       1.294004449259217E-002
  0.989766889234927       1.140447192010945E-002
  0.969345672675662       7.967286405128502E-003
 -3.564326125745461E-003 -1.619383046777445E-002
 -5.093426952808082E-003 -1.322077432782854E-002
  0.985938423169127      -1.272628800339451E-002
  0.996234644069568       1.329884686125032E-002
  1.584908097301781E-002 -2.583814555714192E-002
  0.979635737597749       1.262580929620077E-002
  2.133501680241424E-003  1.707653737775863E-002
  1.622421887989802E-002  2.383946035939191E-002
  1.409374113763705E-002  2.486309155411014E-002
  0.973921258522320      -6.023232688794218E-003
   1.00814617600787      -2.283123568655133E-004
  0.979003746174788      -1.059596546447101E-002
   1.00166443822855      -9.741770543109683E-003
   1.00060158786937      -1.250149173030610E-002
  0.978481152308755       8.797597806676886E-003
  0.997894093022543      -1.306385691246010E-002
  1.389595847979436E-002 -2.700616456435350E-002
 -4.778433715866177E-003  1.389467002847223E-002
 -8.624748410306108E-003  8.448558912237711E-003