TITLE = " "
VARIABLES = "x" "y" "f"
ZONE T="hsample", I=   25, J=    1, K=    1, F=BLOCK
     0.00000000     0.50000000     0.75000000     0.25000000     0.37500000     0.87500000     0.62500000     0.12500000     0.18750000     0.68750000     0.93750000     0.43750000     0.31250000     0.81250000     0.56250000     0.06250000     0.09375000     0.59375000     0.84375000     0.34375000     0.46875000     0.96875000     0.71875000     0.21875000     0.15625000

     0.00000000     0.50000000     0.25000000     0.75000000     0.37500000     0.87500000     0.12500000     0.62500000     0.31250000     0.81250000     0.06250000     0.56250000     0.18750000     0.68750000     0.43750000     0.93750000     0.46875000     0.96875000     0.21875000     0.71875000     0.09375000     0.59375000     0.34375000     0.84375000     0.15625000

     1.00000000     0.66666667     0.61538462     0.61538462     0.78048780     0.39506173     0.71111111     0.71111111     0.88275862     0.46886447     0.53112033     0.66321244     0.88275862     0.46886447     0.66321244     0.53112033     0.81399046     0.43648764     0.56825749     0.61170848     0.81399046     0.43648764     0.61170848     0.56825749     0.95344507
