TITLE = " "
VARIABLES = "x" "y" "f"
ZONE T="hsample", I=   25, J=    1, K=    1, F=BLOCK
     0.00000000     0.00000000     0.79165282    -0.25082450    -1.69103118     1.99922526     1.98308277     1.98995374     1.03146030     1.99333746    -1.97428607    -1.13643629    -1.99900271    -1.98528811    -1.75420776    -1.40368622     1.54768424    -1.36699195    -0.35866910    -1.27359463     0.67606282     0.07377894     1.26424417     1.54961080     1.41402023
     0.79165282    -0.25082450    -1.69103118     1.39258167    -0.16110004     1.85689613     0.72471088    -0.39198459     1.32037707    -1.50720099    -1.99017110    -1.91588284     1.98162330     1.12706811    -1.19803579     1.63608718    -1.98837167     0.95328120    -1.99874637     0.31540764     1.99644485     1.98993836     1.99305666    -0.83981540    -0.26218012
     1.00000000    77.05082420   222.45195390   364.53672230   286.63726120   458.96080340  1030.03280800  1894.88379800     6.57850810  3004.67911800  3475.67320000  1033.28676600   414.77014210   800.94083070  1835.38812600    16.94986807  1921.98094400    89.39576591   454.42475660   175.89890000   237.07521670   394.67993580    15.65205523  1050.78085700   511.66993740
