 variables= "x","y","f"
 zone i=         101  j=         101  datapacking=point
  -2.0000000000000000       -2.0000000000000000        13.000000000000000     
  -2.0000000000000000       -1.9600000000000000        12.841600000000000     
  -2.0000000000000000       -1.9199999999999999        12.686399999999999     
  -2.0000000000000000       -1.8799999999999999        12.534400000000000     
  -2.0000000000000000       -1.8400000000000001        12.385600000000000     
  -2.0000000000000000       -1.8000000000000000        12.240000000000000     
  -2.0000000000000000       -1.7600000000000000        12.097600000000000     
  -2.0000000000000000       -1.7200000000000000        11.958399999999999     
  -2.0000000000000000       -1.6799999999999999        11.822400000000000     
  -2.0000000000000000       -1.6400000000000001        11.689600000000000     
  -2.0000000000000000       -1.6000000000000001        11.560000000000000     
  -2.0000000000000000       -1.5600000000000001        11.433600000000000     
  -2.0000000000000000       -1.5200000000000000        11.310400000000000     
  -2.0000000000000000       -1.4800000000000000        11.190400000000000     
  -2.0000000000000000       -1.4399999999999999        11.073599999999999     
  -2.0000000000000000       -1.3999999999999999        10.960000000000001     
  -2.0000000000000000       -1.3599999999999999        10.849599999999999     
  -2.0000000000000000       -1.3199999999999998        10.742400000000000     
  -2.0000000000000000       -1.2800000000000000        10.638400000000001     
  -2.0000000000000000       -1.2400000000000000        10.537600000000001     
  -2.0000000000000000       -1.2000000000000000        10.440000000000000     
  -2.0000000000000000       -1.1600000000000001        10.345600000000001     
  -2.0000000000000000       -1.1200000000000001        10.254400000000000     
  -2.0000000000000000       -1.0800000000000001        10.166399999999999     
  -2.0000000000000000       -1.0400000000000000        10.081600000000000     
  -2.0000000000000000       -1.0000000000000000        10.000000000000000     
  -2.0000000000000000      -0.95999999999999996        9.9215999999999998     
  -2.0000000000000000      -0.91999999999999993        9.8463999999999992     
  -2.0000000000000000      -0.87999999999999989        9.7744000000000000     
  -2.0000000000000000      -0.84000000000000008        9.7056000000000004     
  -2.0000000000000000      -0.80000000000000004        9.6400000000000006     
  -2.0000000000000000      -0.76000000000000001        9.5776000000000003     
  -2.0000000000000000      -0.71999999999999997        9.5183999999999997     
  -2.0000000000000000      -0.67999999999999994        9.4623999999999988     
  -2.0000000000000000      -0.63999999999999990        9.4096000000000011     
  -2.0000000000000000      -0.60000000000000009        9.3599999999999994     
  -2.0000000000000000      -0.56000000000000005        9.3136000000000010     
  -2.0000000000000000      -0.52000000000000002        9.2704000000000004     
  -2.0000000000000000      -0.47999999999999998        9.2303999999999995     
  -2.0000000000000000      -0.43999999999999995        9.1936000000000000     
  -2.0000000000000000      -0.39999999999999991        9.1600000000000001     
  -2.0000000000000000      -0.36000000000000010        9.1295999999999999     
  -2.0000000000000000      -0.32000000000000006        9.1023999999999994     
  -2.0000000000000000      -0.28000000000000003        9.0784000000000002     
  -2.0000000000000000      -0.23999999999999999        9.0576000000000008     
  -2.0000000000000000      -0.19999999999999996        9.0399999999999991     
  -2.0000000000000000      -0.15999999999999992        9.0256000000000007     
  -2.0000000000000000      -0.12000000000000011        9.0144000000000002     
  -2.0000000000000000       -8.0000000000000071E-002   9.0063999999999993     
  -2.0000000000000000       -4.0000000000000036E-002   9.0015999999999998     
  -2.0000000000000000        0.0000000000000000        9.0000000000000000     
  -2.0000000000000000        4.0000000000000036E-002   9.0015999999999998     
  -2.0000000000000000        8.0000000000000071E-002   9.0063999999999993     
  -2.0000000000000000       0.12000000000000011        9.0144000000000002     
  -2.0000000000000000       0.16000000000000014        9.0256000000000007     
  -2.0000000000000000       0.20000000000000018        9.0399999999999991     
  -2.0000000000000000       0.24000000000000021        9.0576000000000008     
  -2.0000000000000000       0.27999999999999980        9.0784000000000002     
  -2.0000000000000000       0.31999999999999984        9.1023999999999994     
  -2.0000000000000000       0.35999999999999988        9.1295999999999999     
  -2.0000000000000000       0.39999999999999991        9.1600000000000001     
  -2.0000000000000000       0.43999999999999995        9.1936000000000000     
  -2.0000000000000000       0.47999999999999998        9.2303999999999995     
  -2.0000000000000000       0.52000000000000002        9.2704000000000004     
  -2.0000000000000000       0.56000000000000005        9.3136000000000010     
  -2.0000000000000000       0.60000000000000009        9.3599999999999994     
  -2.0000000000000000       0.64000000000000012        9.4096000000000011     
  -2.0000000000000000       0.68000000000000016        9.4624000000000006     
  -2.0000000000000000       0.72000000000000020        9.5183999999999997     
  -2.0000000000000000       0.75999999999999979        9.5776000000000003     
  -2.0000000000000000       0.79999999999999982        9.6400000000000006     
  -2.0000000000000000       0.83999999999999986        9.7056000000000004     
  -2.0000000000000000       0.87999999999999989        9.7744000000000000     
  -2.0000000000000000       0.91999999999999993        9.8463999999999992     
  -2.0000000000000000       0.95999999999999996        9.9215999999999998     
  -2.0000000000000000        1.0000000000000000        10.000000000000000     
  -2.0000000000000000        1.0400000000000000        10.081600000000000     
  -2.0000000000000000        1.0800000000000001        10.166399999999999     
  -2.0000000000000000        1.1200000000000001        10.254400000000000     
  -2.0000000000000000        1.1600000000000001        10.345600000000001     
  -2.0000000000000000        1.2000000000000002        10.440000000000001     
  -2.0000000000000000        1.2400000000000002        10.537600000000001     
  -2.0000000000000000        1.2799999999999998        10.638399999999999     
  -2.0000000000000000        1.3199999999999998        10.742400000000000     
  -2.0000000000000000        1.3599999999999999        10.849599999999999     
  -2.0000000000000000        1.3999999999999999        10.960000000000001     
  -2.0000000000000000        1.4399999999999999        11.073599999999999     
  -2.0000000000000000        1.4800000000000000        11.190400000000000     
  -2.0000000000000000        1.5200000000000000        11.310400000000000     
  -2.0000000000000000        1.5600000000000001        11.433600000000000     
  -2.0000000000000000        1.6000000000000001        11.560000000000000     
  -2.0000000000000000        1.6400000000000001        11.689600000000000     
  -2.0000000000000000        1.6800000000000002        11.822400000000000     
  -2.0000000000000000        1.7200000000000002        11.958400000000001     
  -2.0000000000000000        1.7599999999999998        12.097600000000000     
  -2.0000000000000000        1.7999999999999998        12.239999999999998     
  -2.0000000000000000        1.8399999999999999        12.385600000000000     
  -2.0000000000000000        1.8799999999999999        12.534400000000000     
  -2.0000000000000000        1.9199999999999999        12.686399999999999     
  -2.0000000000000000        1.9600000000000000        12.841600000000000     
  -2.0000000000000000        2.0000000000000000        13.000000000000000     
  -1.9600000000000000       -2.0000000000000000        12.841600000000000     
  -1.9600000000000000       -1.9600000000000000        12.683199999999999     
  -1.9600000000000000       -1.9199999999999999        12.527999999999999     
  -1.9600000000000000       -1.8799999999999999        12.375999999999999     
  -1.9600000000000000       -1.8400000000000001        12.227200000000000     
  -1.9600000000000000       -1.8000000000000000        12.081600000000000     
  -1.9600000000000000       -1.7600000000000000        11.939200000000000     
  -1.9600000000000000       -1.7200000000000000        11.799999999999999     
  -1.9600000000000000       -1.6799999999999999        11.664000000000000     
  -1.9600000000000000       -1.6400000000000001        11.531200000000000     
  -1.9600000000000000       -1.6000000000000001        11.401600000000000     
  -1.9600000000000000       -1.5600000000000001        11.275200000000000     
  -1.9600000000000000       -1.5200000000000000        11.151999999999999     
  -1.9600000000000000       -1.4800000000000000        11.032000000000000     
  -1.9600000000000000       -1.4399999999999999        10.915199999999999     
  -1.9600000000000000       -1.3999999999999999        10.801600000000001     
  -1.9600000000000000       -1.3599999999999999        10.691199999999998     
  -1.9600000000000000       -1.3199999999999998        10.584000000000000     
  -1.9600000000000000       -1.2800000000000000        10.480000000000000     
  -1.9600000000000000       -1.2400000000000000        10.379200000000001     
  -1.9600000000000000       -1.2000000000000000        10.281599999999999     
  -1.9600000000000000       -1.1600000000000001        10.187200000000001     
  -1.9600000000000000       -1.1200000000000001        10.096000000000000     
  -1.9600000000000000       -1.0800000000000001        10.007999999999999     
  -1.9600000000000000       -1.0400000000000000        9.9231999999999996     
  -1.9600000000000000       -1.0000000000000000        9.8415999999999997     
  -1.9600000000000000      -0.95999999999999996        9.7631999999999994     
  -1.9600000000000000      -0.91999999999999993        9.6879999999999988     
  -1.9600000000000000      -0.87999999999999989        9.6159999999999997     
  -1.9600000000000000      -0.84000000000000008        9.5472000000000001     
  -1.9600000000000000      -0.80000000000000004        9.4816000000000003     
  -1.9600000000000000      -0.76000000000000001        9.4192000000000000     
  -1.9600000000000000      -0.71999999999999997        9.3599999999999994     
  -1.9600000000000000      -0.67999999999999994        9.3039999999999985     
  -1.9600000000000000      -0.63999999999999990        9.2512000000000008     
  -1.9600000000000000      -0.60000000000000009        9.2015999999999991     
  -1.9600000000000000      -0.56000000000000005        9.1552000000000007     
  -1.9600000000000000      -0.52000000000000002        9.1120000000000001     
  -1.9600000000000000      -0.47999999999999998        9.0719999999999992     
  -1.9600000000000000      -0.43999999999999995        9.0351999999999997     
  -1.9600000000000000      -0.39999999999999991        9.0015999999999998     
  -1.9600000000000000      -0.36000000000000010        8.9711999999999996     
  -1.9600000000000000      -0.32000000000000006        8.9439999999999991     
  -1.9600000000000000      -0.28000000000000003        8.9199999999999999     
  -1.9600000000000000      -0.23999999999999999        8.8992000000000004     
  -1.9600000000000000      -0.19999999999999996        8.8815999999999988     
  -1.9600000000000000      -0.15999999999999992        8.8672000000000004     
  -1.9600000000000000      -0.12000000000000011        8.8559999999999999     
  -1.9600000000000000       -8.0000000000000071E-002   8.8479999999999990     
  -1.9600000000000000       -4.0000000000000036E-002   8.8431999999999995     
  -1.9600000000000000        0.0000000000000000        8.8415999999999997     
  -1.9600000000000000        4.0000000000000036E-002   8.8431999999999995     
  -1.9600000000000000        8.0000000000000071E-002   8.8479999999999990     
  -1.9600000000000000       0.12000000000000011        8.8559999999999999     
  -1.9600000000000000       0.16000000000000014        8.8672000000000004     
  -1.9600000000000000       0.20000000000000018        8.8815999999999988     
  -1.9600000000000000       0.24000000000000021        8.8992000000000004     
  -1.9600000000000000       0.27999999999999980        8.9199999999999999     
  -1.9600000000000000       0.31999999999999984        8.9439999999999991     
  -1.9600000000000000       0.35999999999999988        8.9711999999999996     
  -1.9600000000000000       0.39999999999999991        9.0015999999999998     
  -1.9600000000000000       0.43999999999999995        9.0351999999999997     
  -1.9600000000000000       0.47999999999999998        9.0719999999999992     
  -1.9600000000000000       0.52000000000000002        9.1120000000000001     
  -1.9600000000000000       0.56000000000000005        9.1552000000000007     
  -1.9600000000000000       0.60000000000000009        9.2015999999999991     
  -1.9600000000000000       0.64000000000000012        9.2512000000000008     
  -1.9600000000000000       0.68000000000000016        9.3040000000000003     
  -1.9600000000000000       0.72000000000000020        9.3599999999999994     
  -1.9600000000000000       0.75999999999999979        9.4192000000000000     
  -1.9600000000000000       0.79999999999999982        9.4816000000000003     
  -1.9600000000000000       0.83999999999999986        9.5472000000000001     
  -1.9600000000000000       0.87999999999999989        9.6159999999999997     
  -1.9600000000000000       0.91999999999999993        9.6879999999999988     
  -1.9600000000000000       0.95999999999999996        9.7631999999999994     
  -1.9600000000000000        1.0000000000000000        9.8415999999999997     
  -1.9600000000000000        1.0400000000000000        9.9231999999999996     
  -1.9600000000000000        1.0800000000000001        10.007999999999999     
  -1.9600000000000000        1.1200000000000001        10.096000000000000     
  -1.9600000000000000        1.1600000000000001        10.187200000000001     
  -1.9600000000000000        1.2000000000000002        10.281600000000001     
  -1.9600000000000000        1.2400000000000002        10.379200000000001     
  -1.9600000000000000        1.2799999999999998        10.479999999999999     
  -1.9600000000000000        1.3199999999999998        10.584000000000000     
  -1.9600000000000000        1.3599999999999999        10.691199999999998     
  -1.9600000000000000        1.3999999999999999        10.801600000000001     
  -1.9600000000000000        1.4399999999999999        10.915199999999999     
  -1.9600000000000000        1.4800000000000000        11.032000000000000     
  -1.9600000000000000        1.5200000000000000        11.151999999999999     
  -1.9600000000000000        1.5600000000000001        11.275200000000000     
  -1.9600000000000000        1.6000000000000001        11.401600000000000     
  -1.9600000000000000        1.6400000000000001        11.531200000000000     
  -1.9600000000000000        1.6800000000000002        11.664000000000000     
  -1.9600000000000000        1.7200000000000002        11.800000000000001     
  -1.9600000000000000        1.7599999999999998        11.939200000000000     
  -1.9600000000000000        1.7999999999999998        12.081599999999998     
  -1.9600000000000000        1.8399999999999999        12.227200000000000     
  -1.9600000000000000        1.8799999999999999        12.375999999999999     
  -1.9600000000000000        1.9199999999999999        12.527999999999999     
  -1.9600000000000000        1.9600000000000000        12.683199999999999     
  -1.9600000000000000        2.0000000000000000        12.841600000000000     
  -1.9199999999999999       -2.0000000000000000        12.686399999999999     
  -1.9199999999999999       -1.9600000000000000        12.527999999999999     
  -1.9199999999999999       -1.9199999999999999        12.372800000000000     
  -1.9199999999999999       -1.8799999999999999        12.220800000000001     
  -1.9199999999999999       -1.8400000000000001        12.071999999999999     
  -1.9199999999999999       -1.8000000000000000        11.926400000000001     
  -1.9199999999999999       -1.7600000000000000        11.783999999999999     
  -1.9199999999999999       -1.7200000000000000        11.644800000000000     
  -1.9199999999999999       -1.6799999999999999        11.508799999999999     
  -1.9199999999999999       -1.6400000000000001        11.376000000000001     
  -1.9199999999999999       -1.6000000000000001        11.246400000000001     
  -1.9199999999999999       -1.5600000000000001        11.120000000000001     
  -1.9199999999999999       -1.5200000000000000        10.996800000000000     
  -1.9199999999999999       -1.4800000000000000        10.876799999999999     
  -1.9199999999999999       -1.4399999999999999        10.760000000000000     
  -1.9199999999999999       -1.3999999999999999        10.646400000000000     
  -1.9199999999999999       -1.3599999999999999        10.536000000000000     
  -1.9199999999999999       -1.3199999999999998        10.428799999999999     
  -1.9199999999999999       -1.2800000000000000        10.324800000000000     
  -1.9199999999999999       -1.2400000000000000        10.224000000000000     
  -1.9199999999999999       -1.2000000000000000        10.126400000000000     
  -1.9199999999999999       -1.1600000000000001        10.032000000000000     
  -1.9199999999999999       -1.1200000000000001        9.9407999999999994     
  -1.9199999999999999       -1.0800000000000001        9.8528000000000002     
  -1.9199999999999999       -1.0400000000000000        9.7680000000000007     
  -1.9199999999999999       -1.0000000000000000        9.6863999999999990     
  -1.9199999999999999      -0.95999999999999996        9.6080000000000005     
  -1.9199999999999999      -0.91999999999999993        9.5327999999999999     
  -1.9199999999999999      -0.87999999999999989        9.4607999999999990     
  -1.9199999999999999      -0.84000000000000008        9.3919999999999995     
  -1.9199999999999999      -0.80000000000000004        9.3263999999999996     
  -1.9199999999999999      -0.76000000000000001        9.2639999999999993     
  -1.9199999999999999      -0.71999999999999997        9.2047999999999988     
  -1.9199999999999999      -0.67999999999999994        9.1487999999999996     
  -1.9199999999999999      -0.63999999999999990        9.0960000000000001     
  -1.9199999999999999      -0.60000000000000009        9.0464000000000002     
  -1.9199999999999999      -0.56000000000000005        9.0000000000000000     
  -1.9199999999999999      -0.52000000000000002        8.9567999999999994     
  -1.9199999999999999      -0.47999999999999998        8.9168000000000003     
  -1.9199999999999999      -0.43999999999999995        8.8799999999999990     
  -1.9199999999999999      -0.39999999999999991        8.8463999999999992     
  -1.9199999999999999      -0.36000000000000010        8.8159999999999989     
  -1.9199999999999999      -0.32000000000000006        8.7888000000000002     
  -1.9199999999999999      -0.28000000000000003        8.7647999999999993     
  -1.9199999999999999      -0.23999999999999999        8.7439999999999998     
  -1.9199999999999999      -0.19999999999999996        8.7263999999999999     
  -1.9199999999999999      -0.15999999999999992        8.7119999999999997     
  -1.9199999999999999      -0.12000000000000011        8.7008000000000010     
  -1.9199999999999999       -8.0000000000000071E-002   8.6928000000000001     
  -1.9199999999999999       -4.0000000000000036E-002   8.6879999999999988     
  -1.9199999999999999        0.0000000000000000        8.6863999999999990     
  -1.9199999999999999        4.0000000000000036E-002   8.6879999999999988     
  -1.9199999999999999        8.0000000000000071E-002   8.6928000000000001     
  -1.9199999999999999       0.12000000000000011        8.7008000000000010     
  -1.9199999999999999       0.16000000000000014        8.7119999999999997     
  -1.9199999999999999       0.20000000000000018        8.7263999999999999     
  -1.9199999999999999       0.24000000000000021        8.7439999999999998     
  -1.9199999999999999       0.27999999999999980        8.7647999999999993     
  -1.9199999999999999       0.31999999999999984        8.7888000000000002     
  -1.9199999999999999       0.35999999999999988        8.8159999999999989     
  -1.9199999999999999       0.39999999999999991        8.8463999999999992     
  -1.9199999999999999       0.43999999999999995        8.8799999999999990     
  -1.9199999999999999       0.47999999999999998        8.9168000000000003     
  -1.9199999999999999       0.52000000000000002        8.9567999999999994     
  -1.9199999999999999       0.56000000000000005        9.0000000000000000     
  -1.9199999999999999       0.60000000000000009        9.0464000000000002     
  -1.9199999999999999       0.64000000000000012        9.0960000000000001     
  -1.9199999999999999       0.68000000000000016        9.1488000000000014     
  -1.9199999999999999       0.72000000000000020        9.2048000000000005     
  -1.9199999999999999       0.75999999999999979        9.2639999999999993     
  -1.9199999999999999       0.79999999999999982        9.3263999999999996     
  -1.9199999999999999       0.83999999999999986        9.3919999999999995     
  -1.9199999999999999       0.87999999999999989        9.4607999999999990     
  -1.9199999999999999       0.91999999999999993        9.5327999999999999     
  -1.9199999999999999       0.95999999999999996        9.6080000000000005     
  -1.9199999999999999        1.0000000000000000        9.6863999999999990     
  -1.9199999999999999        1.0400000000000000        9.7680000000000007     
  -1.9199999999999999        1.0800000000000001        9.8528000000000002     
  -1.9199999999999999        1.1200000000000001        9.9407999999999994     
  -1.9199999999999999        1.1600000000000001        10.032000000000000     
  -1.9199999999999999        1.2000000000000002        10.126400000000000     
  -1.9199999999999999        1.2400000000000002        10.224000000000000     
  -1.9199999999999999        1.2799999999999998        10.324800000000000     
  -1.9199999999999999        1.3199999999999998        10.428799999999999     
  -1.9199999999999999        1.3599999999999999        10.536000000000000     
  -1.9199999999999999        1.3999999999999999        10.646400000000000     
  -1.9199999999999999        1.4399999999999999        10.760000000000000     
  -1.9199999999999999        1.4800000000000000        10.876799999999999     
  -1.9199999999999999        1.5200000000000000        10.996800000000000     
  -1.9199999999999999        1.5600000000000001        11.120000000000001     
  -1.9199999999999999        1.6000000000000001        11.246400000000001     
  -1.9199999999999999        1.6400000000000001        11.376000000000001     
  -1.9199999999999999        1.6800000000000002        11.508800000000001     
  -1.9199999999999999        1.7200000000000002        11.644800000000000     
  -1.9199999999999999        1.7599999999999998        11.783999999999999     
  -1.9199999999999999        1.7999999999999998        11.926399999999999     
  -1.9199999999999999        1.8399999999999999        12.071999999999999     
  -1.9199999999999999        1.8799999999999999        12.220800000000001     
  -1.9199999999999999        1.9199999999999999        12.372800000000000     
  -1.9199999999999999        1.9600000000000000        12.527999999999999     
  -1.9199999999999999        2.0000000000000000        12.686399999999999     
  -1.8799999999999999       -2.0000000000000000        12.534400000000000     
  -1.8799999999999999       -1.9600000000000000        12.375999999999999     
  -1.8799999999999999       -1.9199999999999999        12.220800000000001     
  -1.8799999999999999       -1.8799999999999999        12.068800000000000     
  -1.8799999999999999       -1.8400000000000001        11.920000000000000     
  -1.8799999999999999       -1.8000000000000000        11.774400000000000     
  -1.8799999999999999       -1.7600000000000000        11.632000000000000     
  -1.8799999999999999       -1.7200000000000000        11.492799999999999     
  -1.8799999999999999       -1.6799999999999999        11.356800000000000     
  -1.8799999999999999       -1.6400000000000001        11.224000000000000     
  -1.8799999999999999       -1.6000000000000001        11.094400000000000     
  -1.8799999999999999       -1.5600000000000001        10.968000000000000     
  -1.8799999999999999       -1.5200000000000000        10.844799999999999     
  -1.8799999999999999       -1.4800000000000000        10.724800000000000     
  -1.8799999999999999       -1.4399999999999999        10.608000000000001     
  -1.8799999999999999       -1.3999999999999999        10.494399999999999     
  -1.8799999999999999       -1.3599999999999999        10.384000000000000     
  -1.8799999999999999       -1.3199999999999998        10.276800000000000     
  -1.8799999999999999       -1.2800000000000000        10.172799999999999     
  -1.8799999999999999       -1.2400000000000000        10.071999999999999     
  -1.8799999999999999       -1.2000000000000000        9.9743999999999993     
  -1.8799999999999999       -1.1600000000000001        9.8799999999999990     
  -1.8799999999999999       -1.1200000000000001        9.7888000000000002     
  -1.8799999999999999       -1.0800000000000001        9.7008000000000010     
  -1.8799999999999999       -1.0400000000000000        9.6159999999999997     
  -1.8799999999999999       -1.0000000000000000        9.5343999999999998     
  -1.8799999999999999      -0.95999999999999996        9.4559999999999995     
  -1.8799999999999999      -0.91999999999999993        9.3808000000000007     
  -1.8799999999999999      -0.87999999999999989        9.3087999999999997     
  -1.8799999999999999      -0.84000000000000008        9.2400000000000002     
  -1.8799999999999999      -0.80000000000000004        9.1744000000000003     
  -1.8799999999999999      -0.76000000000000001        9.1120000000000001     
  -1.8799999999999999      -0.71999999999999997        9.0527999999999995     
  -1.8799999999999999      -0.67999999999999994        8.9968000000000004     
  -1.8799999999999999      -0.63999999999999990        8.9439999999999991     
  -1.8799999999999999      -0.60000000000000009        8.8944000000000010     
  -1.8799999999999999      -0.56000000000000005        8.8479999999999990     
  -1.8799999999999999      -0.52000000000000002        8.8048000000000002     
  -1.8799999999999999      -0.47999999999999998        8.7647999999999993     
  -1.8799999999999999      -0.43999999999999995        8.7279999999999998     
  -1.8799999999999999      -0.39999999999999991        8.6943999999999999     
  -1.8799999999999999      -0.36000000000000010        8.6639999999999997     
  -1.8799999999999999      -0.32000000000000006        8.6368000000000009     
  -1.8799999999999999      -0.28000000000000003        8.6128000000000000     
  -1.8799999999999999      -0.23999999999999999        8.5919999999999987     
  -1.8799999999999999      -0.19999999999999996        8.5744000000000007     
  -1.8799999999999999      -0.15999999999999992        8.5599999999999987     
  -1.8799999999999999      -0.12000000000000011        8.5488000000000000     
  -1.8799999999999999       -8.0000000000000071E-002   8.5408000000000008     
  -1.8799999999999999       -4.0000000000000036E-002   8.5359999999999996     
  -1.8799999999999999        0.0000000000000000        8.5343999999999998     
  -1.8799999999999999        4.0000000000000036E-002   8.5359999999999996     
  -1.8799999999999999        8.0000000000000071E-002   8.5408000000000008     
  -1.8799999999999999       0.12000000000000011        8.5488000000000000     
  -1.8799999999999999       0.16000000000000014        8.5599999999999987     
  -1.8799999999999999       0.20000000000000018        8.5744000000000007     
  -1.8799999999999999       0.24000000000000021        8.5920000000000005     
  -1.8799999999999999       0.27999999999999980        8.6128000000000000     
  -1.8799999999999999       0.31999999999999984        8.6367999999999991     
  -1.8799999999999999       0.35999999999999988        8.6639999999999997     
  -1.8799999999999999       0.39999999999999991        8.6943999999999999     
  -1.8799999999999999       0.43999999999999995        8.7279999999999998     
  -1.8799999999999999       0.47999999999999998        8.7647999999999993     
  -1.8799999999999999       0.52000000000000002        8.8048000000000002     
  -1.8799999999999999       0.56000000000000005        8.8479999999999990     
  -1.8799999999999999       0.60000000000000009        8.8944000000000010     
  -1.8799999999999999       0.64000000000000012        8.9439999999999991     
  -1.8799999999999999       0.68000000000000016        8.9968000000000004     
  -1.8799999999999999       0.72000000000000020        9.0528000000000013     
  -1.8799999999999999       0.75999999999999979        9.1119999999999983     
  -1.8799999999999999       0.79999999999999982        9.1743999999999986     
  -1.8799999999999999       0.83999999999999986        9.2399999999999984     
  -1.8799999999999999       0.87999999999999989        9.3087999999999997     
  -1.8799999999999999       0.91999999999999993        9.3808000000000007     
  -1.8799999999999999       0.95999999999999996        9.4559999999999995     