 variables= "x","y","f"
 zone i=         101  j=         101  datapacking=point
  -2.0000000000000000       -2.0000000000000000      -0.65889658413262442     
  -2.0000000000000000       -1.9600000000000000      -0.67351145884904806     
  -2.0000000000000000       -1.9199999999999999      -0.71968705073360717     
  -2.0000000000000000       -1.8799999999999999      -0.73940845987309811     
  -2.0000000000000000       -1.8400000000000001      -0.75838685735648859     
  -2.0000000000000000       -1.8000000000000000      -0.80087977970357538     
  -2.0000000000000000       -1.7600000000000000      -0.80932526710415897     
  -2.0000000000000000       -1.7200000000000000      -0.83458305746316885     
  -2.0000000000000000       -1.6799999999999999      -0.86760077469301733     
  -2.0000000000000000       -1.6400000000000001      -0.86923358071737067     
  -2.0000000000000000       -1.6000000000000001      -0.89959532718560231     
  -2.0000000000000000       -1.5600000000000001      -0.91913997242102297     
  -2.0000000000000000       -1.5200000000000000      -0.91935432314361032     
  -2.0000000000000000       -1.4800000000000000      -0.95082381946433070     
  -2.0000000000000000       -1.4399999999999999      -0.95584989415596289     
  -2.0000000000000000       -1.3999999999999999      -0.95920150964918793     
  -2.0000000000000000       -1.3599999999999999      -0.98613086680830653     
  -2.0000000000000000       -1.3199999999999998      -0.97879899180903573     
  -2.0000000000000000       -1.2800000000000000      -0.98751588437009297     
  -2.0000000000000000       -1.2400000000000000       -1.0043092048987259     
  -2.0000000000000000       -1.2000000000000000      -0.98925772487704078     
  -2.0000000000000000       -1.1600000000000001       -1.0024973093752674     
  -2.0000000000000000       -1.1200000000000001       -1.0053177698684230     
  -2.0000000000000000       -1.0800000000000001      -0.98818045488026718     
  -2.0000000000000000       -1.0400000000000000       -1.0022656471945877     
  -2.0000000000000000       -1.0000000000000000      -0.99021346278829325     
  -2.0000000000000000      -0.95999999999999996      -0.97584670292065168     
  -2.0000000000000000      -0.91999999999999993      -0.98540766362035626     
  -2.0000000000000000      -0.87999999999999989      -0.96080135662720290     
  -2.0000000000000000      -0.84000000000000008      -0.95177467585771058     
  -2.0000000000000000      -0.80000000000000004      -0.95143973626142642     
  -2.0000000000000000      -0.76000000000000001      -0.91911286707086959     
  -2.0000000000000000      -0.71999999999999997      -0.91493405442197939     
  -2.0000000000000000      -0.67999999999999994      -0.90104156132054014     
  -2.0000000000000000      -0.63999999999999990      -0.86687424796102475     
  -2.0000000000000000      -0.60000000000000009      -0.86419069477719257     
  -2.0000000000000000      -0.56000000000000005      -0.83598668472182536     
  -2.0000000000000000      -0.52000000000000002      -0.80512991617530527     
  -2.0000000000000000      -0.47999999999999998      -0.79884259852707062     
  -2.0000000000000000      -0.43999999999999995      -0.75878949838749310     
  -2.0000000000000000      -0.39999999999999991      -0.73413590255871175     
  -2.0000000000000000      -0.36000000000000010      -0.71907715740040135     
  -2.0000000000000000      -0.32000000000000006      -0.67217605300781480     
  -2.0000000000000000      -0.28000000000000003      -0.65355354468788862     
  -2.0000000000000000      -0.23999999999999999      -0.62620345539794986     
  -2.0000000000000000      -0.19999999999999996      -0.57854026576927098     
  -2.0000000000000000      -0.15999999999999992      -0.56287899692982768     
  -2.0000000000000000      -0.12000000000000011      -0.52258289945033787     
  -2.0000000000000000       -8.0000000000000071E-002 -0.47955092191595594     
  -2.0000000000000000       -4.0000000000000036E-002 -0.46196976881809704     
  -2.0000000000000000        0.0000000000000000      -0.41127495990596730     
  -2.0000000000000000        4.0000000000000036E-002 -0.37602710028724656     
  -2.0000000000000000        8.0000000000000071E-002 -0.35149854800130642     
  -2.0000000000000000       0.12000000000000011      -0.29550314198397865     
  -2.0000000000000000       0.16000000000000014      -0.26811522263454002     
  -2.0000000000000000       0.20000000000000018      -0.23318669524989943     
  -2.0000000000000000       0.24000000000000021      -0.17810189991256564     
  -2.0000000000000000       0.27999999999999980      -0.15570621018052413     
  -2.0000000000000000       0.31999999999999984      -0.10973811313206036     
  -2.0000000000000000       0.35999999999999988       -6.1110694236610238E-002
  -2.0000000000000000       0.39999999999999991       -3.8955815211171044E-002
  -2.0000000000000000       0.43999999999999995        1.5512639888458276E-002
  -2.0000000000000000       0.47999999999999998        5.4364927722237687E-002
  -2.0000000000000000       0.52000000000000002        8.1261361584354014E-002
  -2.0000000000000000       0.56000000000000005       0.13913518255375237     
  -2.0000000000000000       0.60000000000000009       0.16798900720441312     
  -2.0000000000000000       0.64000000000000012       0.20311318363337369     
  -2.0000000000000000       0.68000000000000016       0.25816135215357078     
  -2.0000000000000000       0.72000000000000020       0.27978625156762843     
  -2.0000000000000000       0.75999999999999979       0.32386852241353681     
  -2.0000000000000000       0.79999999999999982       0.37049956399995532     
  -2.0000000000000000       0.83999999999999986       0.38962360771715276     
  -2.0000000000000000       0.87999999999999989       0.44024213721923794     
  -2.0000000000000000       0.91999999999999993       0.47508346006747715     
  -2.0000000000000000       0.95999999999999996       0.49675157733690778     
  -2.0000000000000000        1.0000000000000000       0.54892549439827332     
  -2.0000000000000000        1.0400000000000000       0.57171568161987518     
  -2.0000000000000000        1.0800000000000001       0.59955571230438076     
  -2.0000000000000000        1.1200000000000001       0.64714487681215427     
  -2.0000000000000000        1.1600000000000001       0.66066259103743208     
  -2.0000000000000000        1.2000000000000002       0.69560283693344838     
  -2.0000000000000000        1.2400000000000002       0.73307932386772867     
  -2.0000000000000000        1.2799999999999998       0.74213322347435329     
  -2.0000000000000000        1.3199999999999998       0.78197414887750871     
  -2.0000000000000000        1.3599999999999999       0.80601433010100099     
  -2.0000000000000000        1.3999999999999999       0.81581148531840753     
  -2.0000000000000000        1.4399999999999999       0.85578731189993240     
  -2.0000000000000000        1.4800000000000000       0.86618927190612405     
  -2.0000000000000000        1.5200000000000000       0.88059347952767553     
  -2.0000000000000000        1.5600000000000001       0.91475009608295799     
  -2.0000000000000000        1.6000000000000001       0.91439161353543486     
  -2.0000000000000000        1.6400000000000001       0.93461718681026285     
  -2.0000000000000000        1.6800000000000002       0.95757765150104268     
  -2.0000000000000000        1.7200000000000002       0.95142937986279452     
  -2.0000000000000000        1.7599999999999998       0.97557976483058828     
  -2.0000000000000000        1.7999999999999998       0.98414739836816190     
  -2.0000000000000000        1.8399999999999999       0.97765068878644668     
  -2.0000000000000000        1.8799999999999999        1.0012471752525751     
  -2.0000000000000000        1.9199999999999999       0.99534670599705488     
  -2.0000000000000000        1.9600000000000000       0.99266367059844252     
  -2.0000000000000000        2.0000000000000000        1.0099999997764826     
  -1.9600000000000000       -2.0000000000000000      -0.67351145884904806     
  -1.9600000000000000       -1.9600000000000000      -0.71968705073360717     
  -1.9600000000000000       -1.9199999999999999      -0.73940845987309811     
  -1.9600000000000000       -1.8799999999999999      -0.75838685735648859     
  -1.9600000000000000       -1.8400000000000001      -0.80087977970357538     
  -1.9600000000000000       -1.8000000000000000      -0.80932526710415897     
  -1.9600000000000000       -1.7600000000000000      -0.83458305746316885     
  -1.9600000000000000       -1.7200000000000000      -0.86760077469301733     
  -1.9600000000000000       -1.6799999999999999      -0.86923358071737100     
  -1.9600000000000000       -1.6400000000000001      -0.89959532718560231     
  -1.9600000000000000       -1.6000000000000001      -0.91913997242102297     
  -1.9600000000000000       -1.5600000000000001      -0.91935432314361032     
  -1.9600000000000000       -1.5200000000000000      -0.95082381946433070     
  -1.9600000000000000       -1.4800000000000000      -0.95584989415596289     
  -1.9600000000000000       -1.4399999999999999      -0.95920150964918793     
  -1.9600000000000000       -1.3999999999999999      -0.98613086680830653     
  -1.9600000000000000       -1.3599999999999999      -0.97879899180903573     
  -1.9600000000000000       -1.3199999999999998      -0.98751588437009308     
  -1.9600000000000000       -1.2800000000000000       -1.0043092048987259     
  -1.9600000000000000       -1.2400000000000000      -0.98925772487704078     
  -1.9600000000000000       -1.2000000000000000       -1.0024973093752674     
  -1.9600000000000000       -1.1600000000000001       -1.0053177698684230     
  -1.9600000000000000       -1.1200000000000001      -0.98818045488026718     
  -1.9600000000000000       -1.0800000000000001       -1.0022656471945877     
  -1.9600000000000000       -1.0400000000000000      -0.99021346278829325     
  -1.9600000000000000       -1.0000000000000000      -0.97584670292065168     
  -1.9600000000000000      -0.95999999999999996      -0.98540766362035626     
  -1.9600000000000000      -0.91999999999999993      -0.96080135662720290     
  -1.9600000000000000      -0.87999999999999989      -0.95177467585771058     
  -1.9600000000000000      -0.84000000000000008      -0.95143973626142642     
  -1.9600000000000000      -0.80000000000000004      -0.91911286707086959     
  -1.9600000000000000      -0.76000000000000001      -0.91493405442197939     
  -1.9600000000000000      -0.71999999999999997      -0.90104156132054014     
  -1.9600000000000000      -0.67999999999999994      -0.86687424796102475     
  -1.9600000000000000      -0.63999999999999990      -0.86419069477719201     
  -1.9600000000000000      -0.60000000000000009      -0.83598668472182536     
  -1.9600000000000000      -0.56000000000000005      -0.80512991617530527     
  -1.9600000000000000      -0.52000000000000002      -0.79884259852707062     
  -1.9600000000000000      -0.47999999999999998      -0.75878949838749310     
  -1.9600000000000000      -0.43999999999999995      -0.73413590255871175     
  -1.9600000000000000      -0.39999999999999991      -0.71907715740040101     
  -1.9600000000000000      -0.36000000000000010      -0.67217605300781480     
  -1.9600000000000000      -0.32000000000000006      -0.65355354468788862     
  -1.9600000000000000      -0.28000000000000003      -0.62620345539794986     
  -1.9600000000000000      -0.23999999999999999      -0.57854026576927098     
  -1.9600000000000000      -0.19999999999999996      -0.56287899692982768     
  -1.9600000000000000      -0.15999999999999992      -0.52258289945033787     
  -1.9600000000000000      -0.12000000000000011      -0.47955092191595594     
  -1.9600000000000000       -8.0000000000000071E-002 -0.46196976881809704     
  -1.9600000000000000       -4.0000000000000036E-002 -0.41127495990596730     
  -1.9600000000000000        0.0000000000000000      -0.37602710028724656     
  -1.9600000000000000        4.0000000000000036E-002 -0.35149854800130642     
  -1.9600000000000000        8.0000000000000071E-002 -0.29550314198397865     
  -1.9600000000000000       0.12000000000000011      -0.26811522263454002     
  -1.9600000000000000       0.16000000000000014      -0.23318669524989943     
  -1.9600000000000000       0.20000000000000018      -0.17810189991256564     
  -1.9600000000000000       0.24000000000000021      -0.15570621018052327     
  -1.9600000000000000       0.27999999999999980      -0.10973811313206036     
  -1.9600000000000000       0.31999999999999984       -6.1110694236610238E-002
  -1.9600000000000000       0.35999999999999988       -3.8955815211171044E-002
  -1.9600000000000000       0.39999999999999991        1.5512639888458276E-002
  -1.9600000000000000       0.43999999999999995        5.4364927722237687E-002
  -1.9600000000000000       0.47999999999999998        8.1261361584354014E-002
  -1.9600000000000000       0.52000000000000002       0.13913518255375237     
  -1.9600000000000000       0.56000000000000005       0.16798900720441312     
  -1.9600000000000000       0.60000000000000009       0.20311318363337369     
  -1.9600000000000000       0.64000000000000012       0.25816135215357078     
  -1.9600000000000000       0.68000000000000016       0.27978625156762843     
  -1.9600000000000000       0.72000000000000020       0.32386852241353664     
  -1.9600000000000000       0.75999999999999979       0.37049956399995532     
  -1.9600000000000000       0.79999999999999982       0.38962360771715276     
  -1.9600000000000000       0.83999999999999986       0.44024213721923794     
  -1.9600000000000000       0.87999999999999989       0.47508346006747715     
  -1.9600000000000000       0.91999999999999993       0.49675157733690778     
  -1.9600000000000000       0.95999999999999996       0.54892549439827332     
  -1.9600000000000000        1.0000000000000000       0.57171568161987518     
  -1.9600000000000000        1.0400000000000000       0.59955571230438076     
  -1.9600000000000000        1.0800000000000001       0.64714487681215427     
  -1.9600000000000000        1.1200000000000001       0.66066259103743208     
  -1.9600000000000000        1.1600000000000001       0.69560283693344838     
  -1.9600000000000000        1.2000000000000002       0.73307932386772867     
  -1.9600000000000000        1.2400000000000002       0.74213322347435373     
  -1.9600000000000000        1.2799999999999998       0.78197414887750871     
  -1.9600000000000000        1.3199999999999998       0.80601433010100099     
  -1.9600000000000000        1.3599999999999999       0.81581148531840753     
  -1.9600000000000000        1.3999999999999999       0.85578731189993240     
  -1.9600000000000000        1.4399999999999999       0.86618927190612405     
  -1.9600000000000000        1.4800000000000000       0.88059347952767553     
  -1.9600000000000000        1.5200000000000000       0.91475009608295799     
  -1.9600000000000000        1.5600000000000001       0.91439161353543486     
  -1.9600000000000000        1.6000000000000001       0.93461718681026285     
  -1.9600000000000000        1.6400000000000001       0.95757765150104268     
  -1.9600000000000000        1.6800000000000002       0.95142937986279452     
  -1.9600000000000000        1.7200000000000002       0.97557976483058806     
  -1.9600000000000000        1.7599999999999998       0.98414739836816190     
  -1.9600000000000000        1.7999999999999998       0.97765068878644668     
  -1.9600000000000000        1.8399999999999999        1.0012471752525751     
  -1.9600000000000000        1.8799999999999999       0.99534670599705488     
  -1.9600000000000000        1.9199999999999999       0.99266367059844252     
  -1.9600000000000000        1.9600000000000000        1.0099999997764826     
  -1.9600000000000000        2.0000000000000000       0.99266367059844252     
  -1.9199999999999999       -2.0000000000000000      -0.71968705073360717     
  -1.9199999999999999       -1.9600000000000000      -0.73940845987309811     
  -1.9199999999999999       -1.9199999999999999      -0.75838685735648859     
  -1.9199999999999999       -1.8799999999999999      -0.80087977970357538     
  -1.9199999999999999       -1.8400000000000001      -0.80932526710415897     
  -1.9199999999999999       -1.8000000000000000      -0.83458305746316885     
  -1.9199999999999999       -1.7600000000000000      -0.86760077469301733     
  -1.9199999999999999       -1.7200000000000000      -0.86923358071737100     
  -1.9199999999999999       -1.6799999999999999      -0.89959532718560209     
  -1.9199999999999999       -1.6400000000000001      -0.91913997242102297     
  -1.9199999999999999       -1.6000000000000001      -0.91935432314361032     
  -1.9199999999999999       -1.5600000000000001      -0.95082381946433070     
  -1.9199999999999999       -1.5200000000000000      -0.95584989415596289     
  -1.9199999999999999       -1.4800000000000000      -0.95920150964918793     
  -1.9199999999999999       -1.4399999999999999      -0.98613086680830653     
  -1.9199999999999999       -1.3999999999999999      -0.97879899180903573     
  -1.9199999999999999       -1.3599999999999999      -0.98751588437009308     
  -1.9199999999999999       -1.3199999999999998       -1.0043092048987259     
  -1.9199999999999999       -1.2800000000000000      -0.98925772487704078     
  -1.9199999999999999       -1.2400000000000000       -1.0024973093752674     
  -1.9199999999999999       -1.2000000000000000       -1.0053177698684230     
  -1.9199999999999999       -1.1600000000000001      -0.98818045488026718     
  -1.9199999999999999       -1.1200000000000001       -1.0022656471945877     
  -1.9199999999999999       -1.0800000000000001      -0.99021346278829325     
  -1.9199999999999999       -1.0400000000000000      -0.97584670292065168     
  -1.9199999999999999       -1.0000000000000000      -0.98540766362035626     
  -1.9199999999999999      -0.95999999999999996      -0.96080135662720290     
  -1.9199999999999999      -0.91999999999999993      -0.95177467585771058     
  -1.9199999999999999      -0.87999999999999989      -0.95143973626142642     
  -1.9199999999999999      -0.84000000000000008      -0.91911286707086959     
  -1.9199999999999999      -0.80000000000000004      -0.91493405442197939     
  -1.9199999999999999      -0.76000000000000001      -0.90104156132054014     
  -1.9199999999999999      -0.71999999999999997      -0.86687424796102475     
  -1.9199999999999999      -0.67999999999999994      -0.86419069477719201     
  -1.9199999999999999      -0.63999999999999990      -0.83598668472182536     
  -1.9199999999999999      -0.60000000000000009      -0.80512991617530527     
  -1.9199999999999999      -0.56000000000000005      -0.79884259852707062     
  -1.9199999999999999      -0.52000000000000002      -0.75878949838749310     
  -1.9199999999999999      -0.47999999999999998      -0.73413590255871175     
  -1.9199999999999999      -0.43999999999999995      -0.71907715740040101     
  -1.9199999999999999      -0.39999999999999991      -0.67217605300781469     
  -1.9199999999999999      -0.36000000000000010      -0.65355354468788862     
  -1.9199999999999999      -0.32000000000000006      -0.62620345539794986     
  -1.9199999999999999      -0.28000000000000003      -0.57854026576927098     
  -1.9199999999999999      -0.23999999999999999      -0.56287899692982768     
  -1.9199999999999999      -0.19999999999999996      -0.52258289945033787     
  -1.9199999999999999      -0.15999999999999992      -0.47955092191595594     
  -1.9199999999999999      -0.12000000000000011      -0.46196976881809704     
  -1.9199999999999999       -8.0000000000000071E-002 -0.41127495990596730     
  -1.9199999999999999       -4.0000000000000036E-002 -0.37602710028724656     
  -1.9199999999999999        0.0000000000000000      -0.35149854800130642     
  -1.9199999999999999        4.0000000000000036E-002 -0.29550314198397865     
  -1.9199999999999999        8.0000000000000071E-002 -0.26811522263454002     
  -1.9199999999999999       0.12000000000000011      -0.23318669524989943     
  -1.9199999999999999       0.16000000000000014      -0.17810189991256564     
  -1.9199999999999999       0.20000000000000018      -0.15570621018052327     
  -1.9199999999999999       0.24000000000000021      -0.10973811313206049     
  -1.9199999999999999       0.27999999999999980       -6.1110694236610238E-002
  -1.9199999999999999       0.31999999999999984       -3.8955815211171044E-002
  -1.9199999999999999       0.35999999999999988        1.5512639888458276E-002
  -1.9199999999999999       0.39999999999999991        5.4364927722237687E-002
  -1.9199999999999999       0.43999999999999995        8.1261361584354014E-002
  -1.9199999999999999       0.47999999999999998       0.13913518255375237     
  -1.9199999999999999       0.52000000000000002       0.16798900720441312     
  -1.9199999999999999       0.56000000000000005       0.20311318363337369     
  -1.9199999999999999       0.60000000000000009       0.25816135215357078     
  -1.9199999999999999       0.64000000000000012       0.27978625156762843     
  -1.9199999999999999       0.68000000000000016       0.32386852241353664     
  -1.9199999999999999       0.72000000000000020       0.37049956399995598     
  -1.9199999999999999       0.75999999999999979       0.38962360771715276     
  -1.9199999999999999       0.79999999999999982       0.44024213721923794     
  -1.9199999999999999       0.83999999999999986       0.47508346006747715     
  -1.9199999999999999       0.87999999999999989       0.49675157733690778     
  -1.9199999999999999       0.91999999999999993       0.54892549439827332     
  -1.9199999999999999       0.95999999999999996       0.57171568161987518     
  -1.9199999999999999        1.0000000000000000       0.59955571230438076     
  -1.9199999999999999        1.0400000000000000       0.64714487681215427     
  -1.9199999999999999        1.0800000000000001       0.66066259103743208     
  -1.9199999999999999        1.1200000000000001       0.69560283693344838     
  -1.9199999999999999        1.1600000000000001       0.73307932386772867     
  -1.9199999999999999        1.2000000000000002       0.74213322347435373     
  -1.9199999999999999        1.2400000000000002       0.78197414887750871     
  -1.9199999999999999        1.2799999999999998       0.80601433010100099     
  -1.9199999999999999        1.3199999999999998       0.81581148531840753     
  -1.9199999999999999        1.3599999999999999       0.85578731189993240     
  -1.9199999999999999        1.3999999999999999       0.86618927190612405     
  -1.9199999999999999        1.4399999999999999       0.88059347952767553     
  -1.9199999999999999        1.4800000000000000       0.91475009608295799     
  -1.9199999999999999        1.5200000000000000       0.91439161353543486     
  -1.9199999999999999        1.5600000000000001       0.93461718681026285     
  -1.9199999999999999        1.6000000000000001       0.95757765150104268     
  -1.9199999999999999        1.6400000000000001       0.95142937986279452     
  -1.9199999999999999        1.6800000000000002       0.97557976483058806     
  -1.9199999999999999        1.7200000000000002       0.98414739836816245     
  -1.9199999999999999        1.7599999999999998       0.97765068878644668     
  -1.9199999999999999        1.7999999999999998        1.0012471752525751     
  -1.9199999999999999        1.8399999999999999       0.99534670599705488     
  -1.9199999999999999        1.8799999999999999       0.99266367059844252     
  -1.9199999999999999        1.9199999999999999        1.0099999997764826     
  -1.9199999999999999        1.9600000000000000       0.99266367059844252     
  -1.9199999999999999        2.0000000000000000       0.99534670599705488     
  -1.8799999999999999       -2.0000000000000000      -0.73940845987309811     
  -1.8799999999999999       -1.9600000000000000      -0.75838685735648859     
  -1.8799999999999999       -1.9199999999999999      -0.80087977970357538     
  -1.8799999999999999       -1.8799999999999999      -0.80932526710415897     
  -1.8799999999999999       -1.8400000000000001      -0.83458305746316885     
  -1.8799999999999999       -1.8000000000000000      -0.86760077469301733     
  -1.8799999999999999       -1.7600000000000000      -0.86923358071737100     
  -1.8799999999999999       -1.7200000000000000      -0.89959532718560209     
  -1.8799999999999999       -1.6799999999999999      -0.91913997242102352     
  -1.8799999999999999       -1.6400000000000001      -0.91935432314361032     
  -1.8799999999999999       -1.6000000000000001      -0.95082381946433070     
  -1.8799999999999999       -1.5600000000000001      -0.95584989415596289     
  -1.8799999999999999       -1.5200000000000000      -0.95920150964918793     
  -1.8799999999999999       -1.4800000000000000      -0.98613086680830653     
  -1.8799999999999999       -1.4399999999999999      -0.97879899180903573     
  -1.8799999999999999       -1.3999999999999999      -0.98751588437009308     
  -1.8799999999999999       -1.3599999999999999       -1.0043092048987259     
  -1.8799999999999999       -1.3199999999999998      -0.98925772487704078     
  -1.8799999999999999       -1.2800000000000000       -1.0024973093752674     
  -1.8799999999999999       -1.2400000000000000       -1.0053177698684230     
  -1.8799999999999999       -1.2000000000000000      -0.98818045488026718     
  -1.8799999999999999       -1.1600000000000001       -1.0022656471945877     
  -1.8799999999999999       -1.1200000000000001      -0.99021346278829325     
  -1.8799999999999999       -1.0800000000000001      -0.97584670292065168     
  -1.8799999999999999       -1.0400000000000000      -0.98540766362035626     
  -1.8799999999999999       -1.0000000000000000      -0.96080135662720290     
  -1.8799999999999999      -0.95999999999999996      -0.95177467585771058     
  -1.8799999999999999      -0.91999999999999993      -0.95143973626142642     
  -1.8799999999999999      -0.87999999999999989      -0.91911286707086959     
  -1.8799999999999999      -0.84000000000000008      -0.91493405442197939     
  -1.8799999999999999      -0.80000000000000004      -0.90104156132054014     
  -1.8799999999999999      -0.76000000000000001      -0.86687424796102475     
  -1.8799999999999999      -0.71999999999999997      -0.86419069477719201     
  -1.8799999999999999      -0.67999999999999994      -0.83598668472182536     
  -1.8799999999999999      -0.63999999999999990      -0.80512991617530472     
  -1.8799999999999999      -0.60000000000000009      -0.79884259852707062     
  -1.8799999999999999      -0.56000000000000005      -0.75878949838749310     
  -1.8799999999999999      -0.52000000000000002      -0.73413590255871175     
  -1.8799999999999999      -0.47999999999999998      -0.71907715740040101     
  -1.8799999999999999      -0.43999999999999995      -0.67217605300781469     
  -1.8799999999999999      -0.39999999999999991      -0.65355354468788762     
  -1.8799999999999999      -0.36000000000000010      -0.62620345539794986     
  -1.8799999999999999      -0.32000000000000006      -0.57854026576927098     
  -1.8799999999999999      -0.28000000000000003      -0.56287899692982768     
  -1.8799999999999999      -0.23999999999999999      -0.52258289945033787     
  -1.8799999999999999      -0.19999999999999996      -0.47955092191595594     
  -1.8799999999999999      -0.15999999999999992      -0.46196976881809704     
  -1.8799999999999999      -0.12000000000000011      -0.41127495990596730     
  -1.8799999999999999       -8.0000000000000071E-002 -0.37602710028724656     
  -1.8799999999999999       -4.0000000000000036E-002 -0.35149854800130642     
  -1.8799999999999999        0.0000000000000000      -0.29550314198397865     
  -1.8799999999999999        4.0000000000000036E-002 -0.26811522263454002     
  -1.8799999999999999        8.0000000000000071E-002 -0.23318669524989943     
  -1.8799999999999999       0.12000000000000011      -0.17810189991256564     
  -1.8799999999999999       0.16000000000000014      -0.15570621018052327     
  -1.8799999999999999       0.20000000000000018      -0.10973811313206049     
  -1.8799999999999999       0.24000000000000021       -6.1110694236609628E-002
  -1.8799999999999999       0.27999999999999980       -3.8955815211171044E-002
  -1.8799999999999999       0.31999999999999984        1.5512639888458276E-002
  -1.8799999999999999       0.35999999999999988        5.4364927722237687E-002
  -1.8799999999999999       0.39999999999999991        8.1261361584354014E-002
  -1.8799999999999999       0.43999999999999995       0.13913518255375237     
  -1.8799999999999999       0.47999999999999998       0.16798900720441312     
  -1.8799999999999999       0.52000000000000002       0.20311318363337369     
  -1.8799999999999999       0.56000000000000005       0.25816135215357078     
  -1.8799999999999999       0.60000000000000009       0.27978625156762843     
  -1.8799999999999999       0.64000000000000012       0.32386852241353664     
  -1.8799999999999999       0.68000000000000016       0.37049956399995598     
  -1.8799999999999999       0.72000000000000020       0.38962360771715326     
  -1.8799999999999999       0.75999999999999979       0.44024213721923794     
  -1.8799999999999999       0.79999999999999982       0.47508346006747715     
  -1.8799999999999999       0.83999999999999986       0.49675157733690778     
  -1.8799999999999999       0.87999999999999989       0.54892549439827332     
  -1.8799999999999999       0.91999999999999993       0.57171568161987518     
  -1.8799999999999999       0.95999999999999996       0.59955571230438076     