variables = "x" "y" "f" "rmse" "EI" "Exact"
 zone i=         101  j=         101  datapacking=point
  -2.0000000000000000       -2.0000000000000000        291.81624686145972        163.39618945696674        2.4298359752095315        3609.0000000000000     
  -2.0000000000000000       -1.9600000000000000        292.33436609750413        162.54521521174152        2.3421495043033307        3561.1599999999999     
  -2.0000000000000000       -1.9199999999999999        292.77674506566461        161.66919193454342        2.2572535912318408        3513.6399999999999     
  -2.0000000000000000       -1.8799999999999999        293.14304851060876        160.76578651017431        2.1748788202534559        3466.4399999999996     
  -2.0000000000000000       -1.8400000000000001        293.43326655693386        159.83256948250900        2.0947570944034997        3419.5599999999995     
  -2.0000000000000000       -1.8000000000000000        293.64768184798413        158.86704941794395        2.0166267246541238        3373.0000000000000     
  -2.0000000000000000       -1.7600000000000000        293.78683841594028        157.86670868475474        1.9402370652701553        3326.7599999999998     
  -2.0000000000000000       -1.7200000000000000        293.85151225364456        156.82904048918650        1.8653527413730320        3280.8399999999997     
  -2.0000000000000000       -1.6799999999999999        293.84268355921546        155.75158702509628        1.7917575009737323        3235.2399999999998     
  -2.0000000000000000       -1.6400000000000001        293.76151062510598        154.63197861407127        1.7192577091095647        3189.9600000000005     
  -2.0000000000000000       -1.6000000000000001        293.60930534384954        153.46797373602470        1.6476854867395332        3144.9999999999995     
  -2.0000000000000000       -1.5600000000000001        293.38751030333844        152.25749987516014        1.5769014822181937        3100.3600000000006     
  -2.0000000000000000       -1.5200000000000000        293.09767744507121        150.99869513167874        1.5067972489985504        3056.0399999999995     
  -2.0000000000000000       -1.4800000000000000        292.74144825940186        149.68995057442021        1.4372971902322327        3012.0400000000004     
  -2.0000000000000000       -1.4399999999999999        292.32053549242136        148.32995333241587        1.3683600197067491        2968.3599999999997     
  -2.0000000000000000       -1.3999999999999999        291.83670633969382        146.91773044259338        1.2999796796984482        2925.0000000000005     
  -2.0000000000000000       -1.3599999999999999        291.29176710266802        145.45269348488728        1.2321856504932498        2881.9599999999996     
  -2.0000000000000000       -1.3199999999999998        290.68754928417951        143.93468404275671        1.1650425842662528        2839.2400000000002     
  -2.0000000000000000       -1.2800000000000000        290.02589710005338        142.36402002412601        1.0986491985064406        2796.8400000000001     
  -2.0000000000000000       -1.2400000000000000        289.30865638441372        140.74154286201727        1.0331363720371112        2754.7600000000002     
  -2.0000000000000000       -1.2000000000000000        288.53766486690267        139.06866558185459       0.96866440072897664        2713.0000000000005     
  -2.0000000000000000       -1.1600000000000001        287.71474380060351        137.34742166888631       0.90541939095833524        2671.5600000000004     
  -2.0000000000000000       -1.1200000000000001        286.84169092006334        135.58051458858020       0.84360879727111815        2630.4400000000001     
  -2.0000000000000000       -1.0800000000000001        285.92027470940116        133.77136769810744       0.78345614679660791        2589.6399999999999     
  -2.0000000000000000       -1.0400000000000000        284.95222996108510        131.92417412967447       0.72519503642566185        2549.1600000000003     
  -2.0000000000000000       -1.0000000000000000        283.93925460655879        130.04394601668710       0.66906253863941512        2509.0000000000000     
  -2.0000000000000000      -0.95999999999999996        282.88300780048979        128.13656216064393       0.61529220622271508        2469.1600000000003     
  -2.0000000000000000      -0.91999999999999993        281.78510924101136        126.20881288895144       0.56410692189169520        2429.6399999999999     
  -2.0000000000000000      -0.87999999999999989        280.64713970892137        124.26844042103157       0.51571189185458222        2390.4400000000001     
  -2.0000000000000000      -0.84000000000000008        279.47064280940049        122.32417253455236       0.47028812709017709        2351.5599999999999     
  -2.0000000000000000      -0.80000000000000004        278.25712790040484        120.38574670390305       0.42798678638578291        2313.0000000000000     
  -2.0000000000000000      -0.76000000000000001        277.00807419248576        118.46392117849659       0.38892476439410606        2274.7599999999998     
  -2.0000000000000000      -0.71999999999999997        275.72493600538331        116.57046870556346       0.35318189035566405        2236.8399999999997     
  -2.0000000000000000      -0.67999999999999994        274.40914916733601        114.71814783208445       0.32080005494965791        2199.2399999999998     
  -2.0000000000000000      -0.63999999999999990        273.06213854364518        112.92064602801204       0.29178450374986831        2161.9600000000000     
  -2.0000000000000000      -0.60000000000000009        271.68532668162817        111.19248838349230       0.26610743054828445        2124.9999999999995     
  -2.0000000000000000      -0.56000000000000005        270.28014355968747        109.54890551642025       0.24371388240109648        2088.3600000000006     
  -2.0000000000000000      -0.52000000000000002        268.84803742882355        108.00565479291204       0.22452986563934929        2052.0399999999995     
  -2.0000000000000000      -0.47999999999999998        267.39048673550735        106.57879024217146       0.20847243614340405        2016.0400000000002     
  -2.0000000000000000      -0.43999999999999995        265.90901311543200        105.28437885035922       0.19546148491587689        1980.3599999999997     
  -2.0000000000000000      -0.39999999999999991        264.40519544825111        104.13816437772198       0.18543290256267109        1945.0000000000002     
  -2.0000000000000000      -0.36000000000000010        262.88068496401280        103.15518443369119       0.17835282375351658        1909.9600000000003     
  -2.0000000000000000      -0.32000000000000006        261.33722139258936        102.34935200175003       0.17423269990265755        1875.2400000000002     
  -2.0000000000000000      -0.28000000000000003        259.77665014800158        101.73301837287799       0.17314499331798627        1840.8400000000001     
  -2.0000000000000000      -0.23999999999999999        258.20094054012861        101.31653968316691       0.17523928283113177        1806.7600000000002     
  -2.0000000000000000      -0.19999999999999996        256.61220500689376        101.10787293804042       0.18075846640279769        1773.0000000000000     
  -2.0000000000000000      -0.15999999999999992        255.01271936060834        101.11222854869935       0.19005449273784691        1739.5600000000002     
  -2.0000000000000000      -0.12000000000000011        253.40494402287962        101.33180434836976       0.20360262708722798        1706.4399999999998     
  -2.0000000000000000       -8.0000000000000071E-002   251.79153968120141        101.76563319877724       0.22201295378220665        1673.6399999999999     
  -2.0000000000000000       -4.0000000000000036E-002   250.17533206489526        102.40964132068184       0.24603911662235034        1641.1600000000001     
  -2.0000000000000000        0.0000000000000000        248.55922120411566        103.25691911750270       0.27658316151211748        1609.0000000000000     
  -2.0000000000000000        4.0000000000000036E-002   246.94608347755167        104.29809093092736       0.31469323478126743        1577.1599999999999     
  -2.0000000000000000        8.0000000000000071E-002   245.33869520242712        105.52173257245251       0.36155203124957325        1545.6399999999999     
  -2.0000000000000000       0.12000000000000011        243.73970991124654        106.91479785140255       0.41845423178998242        1514.4399999999998     
  -2.0000000000000000       0.16000000000000014        242.15165705241716        108.46304195114445       0.48677297638609351        1483.5599999999999     
  -2.0000000000000000       0.20000000000000018        240.57694195397929        110.15142768845473       0.56791659280200335        1453.0000000000000     
  -2.0000000000000000       0.24000000000000021        239.01784621530638        111.96449824971926       0.66327777898814011        1422.7600000000000     
  -2.0000000000000000       0.27999999999999980        237.47652849735726        113.88670531292760       0.77417847315120270        1392.8400000000001     
  -2.0000000000000000       0.31999999999999984        235.95502568265852        115.90268678283816       0.90181429214858344        1363.2400000000000     
  -2.0000000000000000       0.35999999999999988        234.45525437678975        117.99749284282851        1.0472025480401577        1333.9600000000000     
  -2.0000000000000000       0.39999999999999991        232.97901272374159        120.15676240795905        1.2111374622882911        1305.0000000000000     
  -2.0000000000000000       0.43999999999999995        231.52798250811031        122.36685432637543        1.3941553885617486        1276.3600000000001     
  -2.0000000000000000       0.47999999999999998        230.10373151768837        124.61493894841433        1.5965117953128045        1248.0400000000000     
  -2.0000000000000000       0.52000000000000002        228.70771614060723        126.88905616838450        1.8181706331482630        1220.0400000000000     
  -2.0000000000000000       0.56000000000000005        227.34128417178192        129.17814596404654        2.0588056807501811        1192.3599999999999     
  -2.0000000000000000       0.60000000000000009        226.00567780400488        131.47205701468030        2.3178126386022306        1164.9999999999998     
  -2.0000000000000000       0.64000000000000012        224.70203677962922        133.76153833384325        2.5943301767915887        1137.9599999999998     
  -2.0000000000000000       0.68000000000000016        223.43140167938066        136.03821812844356        2.8872678456989735        1111.2400000000000     
  -2.0000000000000000       0.72000000000000020        222.19471732542772        138.29457337344013        3.1953386940578010        1084.8399999999999     
  -2.0000000000000000       0.75999999999999979        220.99283627644209        140.52389292124252        3.5170945551353494        1058.7600000000002     
  -2.0000000000000000       0.79999999999999982        219.82652239296868        142.72023637277732        3.8509622001759229        1033.0000000000002     
  -2.0000000000000000       0.83999999999999986        218.69645445202778        144.87839043277671        4.1952788643254877        1007.5600000000002     
  -2.0000000000000000       0.87999999999999989        217.60322976166933        146.99382405895693        4.5483259820741360        982.44000000000005     
  -2.0000000000000000       0.91999999999999993        216.54736683522756        149.06264351487619        4.9083603751235678        957.63999999999999     
  -2.0000000000000000       0.95999999999999996        215.52930527156130        151.08154825427516        5.2736425412117072        933.15999999999997     
  -2.0000000000000000        1.0000000000000000        214.54940433750718        153.04778778869169        5.6424616407544548        909.00000000000000     
  -2.0000000000000000        1.0400000000000000        213.60794143176008        154.95911967528357        6.0131569611454125        885.15999999999997     
  -2.0000000000000000        1.0800000000000001        212.70511046775982        156.81376885919397        6.3841358824127887        861.63999999999987     
  -2.0000000000000000        1.1200000000000001        211.84102015311905        158.61038852618532        6.7538884864397062        838.43999999999994     
  -2.0000000000000000        1.1600000000000001        211.01569214372373        160.34802255637240        7.1209990304914221        815.55999999999995     
  -2.0000000000000000        1.2000000000000002        210.22905905123289        162.02606962394114        7.4841545555865814        792.99999999999989     
  -2.0000000000000000        1.2400000000000002        209.48096228329720        163.64424895617549        7.8421509272661751        770.75999999999988     
  -2.0000000000000000        1.2799999999999998        208.77114969652183        165.20256774427281        8.1938966159485638        748.84000000000015     
  -2.0000000000000000        1.3199999999999998        208.09927332836494        166.70129022614285        8.5384144978962055        727.24000000000012     
  -2.0000000000000000        1.3599999999999999        207.46489051355530        168.14090890354126        8.8748416915489194        705.96000000000004     
  -2.0000000000000000        1.3999999999999999        206.86747038432597        169.52211823139888        9.2024274947083349        685.00000000000011     
  -2.0000000000000000        1.4399999999999999        206.30640145090803        170.84579018788719        9.5205299892320667        664.36000000000001     
  -2.0000000000000000        1.4800000000000000        205.78099895021359        172.11295148187131        9.8286116565623161        644.04000000000008     
  -2.0000000000000000        1.5200000000000000        205.29051193783371        173.32476232658840        10.126234225195915        624.04000000000008     
  -2.0000000000000000        1.5600000000000001        204.83413011930273        174.48249671382555        10.413052944365919        604.36000000000001     
  -2.0000000000000000        1.6000000000000001        204.41099041717521        175.58752412585048        10.688810453959416        585.00000000000000     
  -2.0000000000000000        1.6400000000000001        204.02018327105770        176.64129262533501        10.953330397931968        565.95999999999992     
  -2.0000000000000000        1.6800000000000002        203.66075866833276        177.64531326631365        11.206510907429955        547.24000000000001     
  -2.0000000000000000        1.7200000000000002        203.33173190390818        178.60114577171782        11.448318060622789        528.83999999999992     
  -2.0000000000000000        1.7599999999999998        203.03208906791951        179.51038542515059        11.678779408880423        510.76000000000005     
  -2.0000000000000000        1.7999999999999998        202.76079226091028        180.37465112629181        11.897977643362548        493.00000000000006     
  -2.0000000000000000        1.8399999999999999        202.51678453660887        181.19557456065107        12.106044462229001        475.56000000000006     
  -2.0000000000000000        1.8799999999999999        202.29899457301684        181.97479043533747        12.303154686410309        458.44000000000005     
  -2.0000000000000000        1.9199999999999999        202.10634107311927        182.71392773312854        12.489520661079805        441.64000000000004     
  -2.0000000000000000        1.9600000000000000        201.93773689712248        183.41460193744581        12.665386970514149        425.15999999999997     
  -2.0000000000000000        2.0000000000000000        201.79209292872071        184.07840818093027        12.831025485786650        409.00000000000000     
  -1.9600000000000000       -2.0000000000000000        295.28255766781359        161.86600910573011        2.1849369493982529        3421.1906559999998     
  -1.9600000000000000       -1.9600000000000000        295.77088720140227        160.99431134777598        2.1028853927604736        3374.6178559999989     
  -1.9600000000000000       -1.9199999999999999        296.17795618104628        160.09767415602573        2.0236804857437356        3328.3650559999992     
  -1.9600000000000000       -1.8799999999999999        296.50345840704733        159.17359109685725        1.9470406172623207        3282.4322559999991     
  -1.9600000000000000       -1.8400000000000001        296.74743620428609        158.21944168755849        1.8726865473386045        3236.8194559999993     
  -1.9600000000000000       -1.8000000000000000        296.91024589137601        157.23252773626220        1.8003463771738151        3191.5266559999991     
  -1.9600000000000000       -1.7600000000000000        296.99252505972868        156.21011117484261        1.7297600613441251        3146.5538559999991     
  -1.9600000000000000       -1.7200000000000000        296.99516163036293        155.14945320244800        1.6606835171394234        3101.9010559999992     
  -1.9600000000000000       -1.6799999999999999        296.91926465688999        154.04785457687669        1.5928923705625841        3057.5682559999991     
  -1.9600000000000000       -1.6400000000000001        296.76613684371051        152.90269691562344        1.5261853620311365        3013.5554560000000     
  -1.9600000000000000       -1.6000000000000001        296.53724874905845        151.71148489690319        1.4603874179230667        2969.8626559999993     
  -1.9600000000000000       -1.5600000000000001        296.23421464313469        150.47188928203553        1.3953523773133947        2926.4898560000001     
  -1.9600000000000000       -1.5200000000000000        295.85876999217157        149.18179071297735        1.3309653470979965        2883.4370559999988     
  -1.9600000000000000       -1.4800000000000000        295.41275053987420        147.83932427121488        1.2671446437465717        2840.7042560000000     
  -1.9600000000000000       -1.4399999999999999        294.89807295828723        146.44292481529715        1.2038432667700611        2798.2914559999990     
  -1.9600000000000000       -1.3999999999999999        294.31671704073688        144.99137314252681        1.1410498382839060        2756.1986560000000     
  -1.9600000000000000       -1.3599999999999999        293.67070941010303        143.48384304402714        1.0787889355302989        2714.4258559999989     
  -1.9600000000000000       -1.3199999999999998        292.96210871627659        141.91994933957741        1.0171207397077273        2672.9730559999998     
  -1.9600000000000000       -1.2800000000000000        292.19299229726130        140.29979698678574       0.95613992584029450        2631.8402559999995     
  -1.9600000000000000       -1.2400000000000000        291.36544427898167        138.62403135525747       0.89597372566372702        2591.0274559999998     
  -1.9600000000000000       -1.2000000000000000        290.48154508946141        136.89388973644412       0.83677910958549973        2550.5346559999998     
  -1.9600000000000000       -1.1600000000000001        289.54336236363758        135.11125411874602       0.77873905561464518        2510.3618559999995     
  -1.9600000000000000       -1.1200000000000001        288.55294321568374        133.27870518868957       0.72205790349385257        2470.5090559999994     
  -1.9600000000000000       -1.0800000000000001        287.51230785630946        131.39957741439966       0.66695583150746263        2430.9762559999999     
  -1.9600000000000000       -1.0400000000000000        286.42344453311534        129.47801491692351       0.61366254142354260        2391.7634559999992     
  -1.9600000000000000       -1.0000000000000000        285.28830577267831        127.51902762584963       0.56241029278103616        2352.8706559999996     
  -1.9600000000000000      -0.95999999999999996        284.10880590364866        125.52854693353241       0.51342648916723244        2314.2978559999992     
  -1.9600000000000000      -0.91999999999999993        282.88681984074242        123.51347969073126       0.46692608279138126        2276.0450559999995     
  -1.9600000000000000      -0.87999999999999989        281.62418311011197        121.48175890848655       0.42310412454252599        2238.1122559999994     
  -1.9600000000000000      -0.84000000000000008        280.32269309718652        119.44238893072728       0.38212883828931021        2200.4994559999996     
  -1.9600000000000000      -0.80000000000000004        278.98411149867093        117.40548210832907       0.34413563269493075        2163.2066559999994     
  -1.9600000000000000      -0.76000000000000001        277.61016796099716        115.38228313723373       0.30922247309605799        2126.2338559999994     
  -1.9600000000000000      -0.71999999999999997        276.20256488812566        113.38517623818261       0.27744701266183025        2089.5810559999991     
  -1.9600000000000000      -0.67999999999999994        274.76298340219375        111.42766930000096       0.24882582130512421        2053.2482559999994     
  -1.9600000000000000      -0.63999999999999990        273.29309044111380        109.52434807077731       0.22333595243993698        2017.2354559999994     
  -1.9600000000000000      -0.60000000000000009        271.79454697782558        107.69079260638081       0.20091895787112057        1981.5426559999994     
  -1.9600000000000000      -0.56000000000000005        270.26901734650880        105.94344768527093       0.18148731353698877        1946.1698560000002     
  -1.9600000000000000      -0.52000000000000002        268.71817966166691        104.29943905303185       0.16493307409292979        1911.1170559999994     
  -1.9600000000000000      -0.47999999999999998        267.14373731659248        102.77632850239601       0.15113845722619823        1876.3842560000001     
  -1.9600000000000000      -0.43999999999999995        265.54743154833108        101.39180326465660       0.13998799309313559        1841.9714559999991     
  -1.9600000000000000      -0.39999999999999991        263.93105505686020        100.16329925135817       0.13138187674509738        1807.8786560000001     
  -1.9600000000000000      -0.36000000000000010        262.29646666680355        99.107563413414070       0.12525023354631815        1774.1058559999999     
  -1.9600000000000000      -0.32000000000000006        260.64560702060402        98.240167623314889       0.12156813082751272        1740.6530560000001     
  -1.9600000000000000      -0.28000000000000003        258.98051529268122        97.574994342435275       0.12037130231306903        1707.5202560000000     
  -1.9600000000000000      -0.23999999999999999        257.30334691470051        97.123721756798076       0.12177263395883942        1674.7074560000001     
  -1.9600000000000000      -0.19999999999999996        255.61639230268702        96.895341564004823       0.12597941674476920        1642.2146559999999     
  -1.9600000000000000      -0.15999999999999992        253.92209657731553        96.895744652686517       0.13331113009374929        1610.0418559999998     
  -1.9600000000000000      -0.12000000000000011        252.22308024893758        97.127407457477091       0.14421702610497888        1578.1890559999999     
  -1.9600000000000000       -8.0000000000000071E-002   250.52215413204010        97.589218028693125       0.15929226919941120        1546.6562559999998     
  -1.9600000000000000       -4.0000000000000036E-002   248.82228203791820        98.276548347898057       0.17929214040804720        1515.4434559999997     
  -1.9600000000000000        0.0000000000000000        247.12648648970253        99.181573083211845       0.20514260961536301        1484.5506559999999     
  -1.9600000000000000        4.0000000000000036E-002   245.43774701108379        100.29370770063224       0.23794354291469166        1453.9778559999997     
  -1.9600000000000000        8.0000000000000071E-002   243.75892109920210        101.60010469079747       0.27896155862485816        1423.7250559999998     
  -1.9600000000000000       0.12000000000000011        242.09272184835376        103.08616000822336       0.32960983845478875        1393.7922559999997     
  -1.9600000000000000       0.16000000000000014        240.44171813525401        104.73601167059950       0.39141404011832526        1364.1794559999996     
  -1.9600000000000000       0.20000000000000018        238.80833606452887        106.53301190726570       0.46596505386843523        1334.8866559999997     
  -1.9600000000000000       0.24000000000000021        237.19486079395008        108.46015327510719       0.55486089961749885        1305.9138559999997     
  -1.9600000000000000       0.27999999999999980        235.60343871028147        110.50043647937424       0.65964163959215050        1277.2610560000001     
  -1.9600000000000000       0.31999999999999984        234.03607992721081        112.63717458063047       0.78172224932607115        1248.9282559999999     
  -1.9600000000000000       0.35999999999999988        232.49466107744058        114.85423384004010       0.92232873032157325        1220.9154559999999     
  -1.9600000000000000       0.39999999999999991        230.98092837161803        117.13621541438968        1.0824423314162734        1193.2226559999999     
  -1.9600000000000000       0.43999999999999995        229.49650089738230        119.46858453370142        1.2627557089008699        1165.8498559999998     
  -1.9600000000000000       0.47999999999999998        228.04287413241383        121.83775493498653        1.4636434409447316        1138.7970559999999     
  -1.9600000000000000       0.52000000000000002        226.62142364597162        124.23113651275000        1.6851477933145027        1112.0642559999999     
  -1.9600000000000000       0.56000000000000005        225.23340896400566        126.63715369972118        1.9269792475586058        1085.6514559999998     
  -1.9600000000000000       0.60000000000000009        223.87997757353821        129.04524127894189        2.1885302100787634        1059.5586559999997     
  -1.9600000000000000       0.64000000000000012        222.56216904260452        131.44582335393326        2.4688995942288301        1033.7858559999997     
  -1.9600000000000000       0.68000000000000016        221.28091923265379        133.83028020628083        2.7669256063793952        1008.3330559999997     
  -1.9600000000000000       0.72000000000000020        220.03706458090468        136.19090683520406        3.0812240181702926        983.20025599999974     
  -1.9600000000000000       0.75999999999999979        218.83134643076255        138.52086614675315        3.4102293924730063        958.38745599999993     
  -1.9600000000000000       0.79999999999999982        217.66441538899835        140.81413905865293        3.7522370664220901        933.89465599999994     
  -1.9600000000000000       0.83999999999999986        216.53683568899967        143.06547321031925        4.1054441066321505        909.72185600000000     
  -1.9600000000000000       0.87999999999999989        215.44908950785987        145.27033151110686        4.4679878836117073        885.86905599999989     
  -1.9600000000000000       0.91999999999999993        214.40158019036232        147.42484154291211        4.8379814124762319        862.33625599999982     
  -1.9600000000000000       0.95999999999999996        213.39463231310177        149.52574664059011        5.2135450936585812        839.12345599999992     
  -1.9600000000000000        1.0000000000000000        212.42849026166471        151.57035866702830        5.5928344576959255        816.23065599999995     
  -1.9600000000000000        1.0400000000000000        211.50331663982649        153.55651250683545        5.9740637310051206        793.65785599999981     
  -1.9600000000000000        1.0800000000000001        210.61919055518555        155.48252242254719        6.3555253118621415        771.40505599999983     
  -1.9600000000000000        1.1200000000000001        209.77610575856264        157.34714034911082        6.7356053751797802        749.47225599999990     
  -1.9600000000000000        1.1600000000000001        208.97396861509682        159.14951614782029        7.1127959060810291        727.85945599999980     
  -1.9600000000000000        1.2000000000000002        208.21259588557069        160.88915980499402        7.4857035097616382        706.56665599999974     
  -1.9600000000000000        1.2400000000000002        207.49171229709955        162.56590553853215        7.8530553665948872        685.59385599999973     
  -1.9600000000000000        1.2799999999999998        206.81094788304233        164.17987776317477        8.2137027037036994        664.94105600000000     
  -1.9600000000000000        1.3199999999999998        206.16983538694399        165.73145890705635        8.5666221178578077        644.60825599999998     
  -1.9600000000000000        1.3599999999999999        205.56781137096871        167.22125959207784        8.9109147869615306        624.59545599999990     
  -1.9600000000000000        1.3999999999999999        205.00422323129570        168.65009154941293        9.2458036560631172        604.90265599999998     
  -1.9600000000000000        1.4399999999999999        204.47833738484519        170.01894256869542        9.5706292257289576        585.52985600000000     
  -1.9600000000000000        1.4800000000000000        203.98934718461555        171.32895318975022        9.8848443236114889        566.47705599999995     
  -1.9600000000000000        1.5200000000000000        203.53638053777902        172.58139504901686        10.188008103361032        547.74425599999995     