variables = "x" "y" "f" "rmse" "EI" "Exact"
 zone i=         101  j=         101  datapacking=point
  -2.0000000000000000       -2.0000000000000000        3549.2082936837432        21.161658673502743        0.0000000000000000        3609.0000000000000     
  -2.0000000000000000       -1.9600000000000000        3506.4350957417882        19.489233975783204        0.0000000000000000        3561.1599999999999     
  -2.0000000000000000       -1.9199999999999999        3463.6453401208310        18.115188136078537        0.0000000000000000        3513.6399999999999     
  -2.0000000000000000       -1.8799999999999999        3420.8475009177309        17.015892414660954        0.0000000000000000        3466.4399999999996     
  -2.0000000000000000       -1.8400000000000001        3378.0501480888524        16.156785681195565        0.0000000000000000        3419.5599999999995     
  -2.0000000000000000       -1.8000000000000000        3335.2619336431562        15.494250914546015        0.0000000000000000        3373.0000000000000     
  -2.0000000000000000       -1.7600000000000000        3292.4915843691961        14.979271844785684        0.0000000000000000        3326.7599999999998     
  -2.0000000000000000       -1.7200000000000000        3249.7478935475337        14.561826692507314        0.0000000000000000        3280.8399999999997     
  -2.0000000000000000       -1.6799999999999999        3207.0397111281018        14.194814872468436        0.0000000000000000        3235.2399999999998     
  -2.0000000000000000       -1.6400000000000001        3164.3759338152777        13.836765489668428        0.0000000000000000        3189.9600000000005     
  -2.0000000000000000       -1.6000000000000001        3121.7654951547484        13.453197704503937        0.0000000000000000        3144.9999999999995     
  -2.0000000000000000       -1.5600000000000001        3079.2173556189118        13.016930387963999        0.0000000000000000        3100.3600000000006     
  -2.0000000000000000       -1.5200000000000000        3036.7404926947165        12.507787864245586        0.0000000000000000        3056.0399999999995     
  -2.0000000000000000       -1.4800000000000000        2994.3438909687575        11.912115235555694        0.0000000000000000        3012.0400000000004     
  -2.0000000000000000       -1.4399999999999999        2952.0365322126636        11.222420694441851        0.0000000000000000        2968.3599999999997     
  -2.0000000000000000       -1.3999999999999999        2909.8273854668405        10.437451928212834        0.0000000000000000        2925.0000000000005     
  -2.0000000000000000       -1.3599999999999999        2867.7253971212886        9.5630849547178034        0.0000000000000000        2881.9599999999996     
  -2.0000000000000000       -1.3199999999999998        2825.7394809955404        8.6147247849489794        0.0000000000000000        2839.2400000000002     
  -2.0000000000000000       -1.2800000000000000        2783.8785084141382        7.6226059436311564        0.0000000000000000        2796.8400000000001     
  -2.0000000000000000       -1.2400000000000000        2742.1512982789027        6.6426846094299075        0.0000000000000000        2754.7600000000002     
  -2.0000000000000000       -1.2000000000000000        2700.5666071381747        5.7766370810436252        0.0000000000000000        2713.0000000000005     
  -2.0000000000000000       -1.1600000000000001        2659.1331192506514        5.1954985311020270        0.0000000000000000        2671.5600000000004     
  -2.0000000000000000       -1.1200000000000001        2617.8594366443540        5.1173836203551302        0.0000000000000000        2630.4400000000001     
  -2.0000000000000000       -1.0800000000000001        2576.7540691702925        5.6701644898163908        0.0000000000000000        2589.6399999999999     
  -2.0000000000000000       -1.0400000000000000        2535.8254249971906        6.7867065896329475        0.0000000000000000        2549.1600000000003     
  -2.0000000000000000       -1.0000000000000000        2495.0818065052481        8.3093385016032162        0.0000000000000000        2509.0000000000000     
  -2.0000000000000000      -0.95999999999999996        2454.5314143505275        10.108278470612234        0.0000000000000000        2469.1600000000003     
  -2.0000000000000000      -0.91999999999999993        2414.1823533883617        12.101607975570253        0.0000000000000000        2429.6399999999999     
  -2.0000000000000000      -0.87999999999999989        2374.0426386170839        14.239534468429435        0.0000000000000000        2390.4400000000001     
  -2.0000000000000000      -0.84000000000000008        2334.1202011163878        16.490266407112816        0.0000000000000000        2351.5599999999999     
  -2.0000000000000000      -0.80000000000000004        2294.4228939788700        18.831887622046946        0.0000000000000000        2313.0000000000000     
  -2.0000000000000000      -0.76000000000000001        2254.9584982369815        21.248059835225117        0.0000000000000000        2274.7599999999998     
  -2.0000000000000000      -0.71999999999999997        2215.7347287842967        23.725737288045195        0.0000000000000000        2236.8399999999997     
  -2.0000000000000000      -0.67999999999999994        2176.7592402905466        26.253914681225694        0.0000000000000000        2199.2399999999998     
  -2.0000000000000000      -0.63999999999999990        2138.0396331134798        28.822914106879985        0.0000000000000000        2161.9600000000000     
  -2.0000000000000000      -0.60000000000000009        2099.5834592052452        31.423962868272405        0.0000000000000000        2124.9999999999995     
  -2.0000000000000000      -0.56000000000000005        2061.3982280134551        34.048934295275338        0.0000000000000000        2088.3600000000006     
  -2.0000000000000000      -0.52000000000000002        2023.4914123789313        36.690183877409503        0.0000000000000000        2052.0399999999995     
  -2.0000000000000000      -0.47999999999999998        1985.8704544300381        39.340440881108435        0.0000000000000000        2016.0400000000002     
  -2.0000000000000000      -0.43999999999999995        1948.5427714717844        41.992735334186385        0.0000000000000000        1980.3599999999997     
  -2.0000000000000000      -0.39999999999999991        1911.5157618711200        44.640347667505097        0.0000000000000000        1945.0000000000002     
  -2.0000000000000000      -0.36000000000000010        1874.7968109414542        47.276771155246735        0.0000000000000000        1909.9600000000003     
  -2.0000000000000000      -0.32000000000000006        1838.3932965249587        49.895685562376514        0.0000000000000000        1875.2400000000002     
  -2.0000000000000000      -0.28000000000000003        1802.3125843856433        52.490934924279337        0.0000000000000000        1840.8400000000001     
  -2.0000000000000000      -0.23999999999999999        1766.5619929656714        55.056509126525853        0.0000000000000000        1806.7600000000002     
  -2.0000000000000000      -0.19999999999999996        1731.1487440427918        57.586527028464566        0.0000000000000000        1773.0000000000000     
  -2.0000000000000000      -0.15999999999999992        1696.0799156695321        60.075221259755672        0.0000000000000000        1739.5600000000002     
  -2.0000000000000000      -0.12000000000000011        1661.3624012094260        62.516924900966124        0.0000000000000000        1706.4399999999998     
  -2.0000000000000000       -8.0000000000000071E-002   1627.0028702853924        64.906058294985641        0.0000000000000000        1673.6399999999999     
  -2.0000000000000000       -4.0000000000000036E-002   1593.0077297666321        67.237117229868488        0.0000000000000000        1641.1600000000001     
  -2.0000000000000000        0.0000000000000000        1559.3830847385289        69.504661450711282        0.0000000000000000        1609.0000000000000     
  -2.0000000000000000        4.0000000000000036E-002   1526.1346998408007        71.703304211855581        0.0000000000000000        1577.1599999999999     
  -2.0000000000000000        8.0000000000000071E-002   1493.2679705099908        73.827701879307710        0.0000000000000000        1545.6399999999999     
  -2.0000000000000000       0.12000000000000011        1460.7879193997833        75.872545706051824        0.0000000000000000        1514.4399999999998     
  -2.0000000000000000       0.16000000000000014        1428.6992031979498        77.832553554800128        0.0000000000000000        1483.5599999999999     
  -2.0000000000000000       0.20000000000000018        1397.0061268523459        79.702466688747506        0.0000000000000000        1453.0000000000000     
  -2.0000000000000000       0.24000000000000021        1365.7126697806707        81.477052562190366        0.0000000000000000        1422.7600000000000     
  -2.0000000000000000       0.27999999999999980        1334.8225151811384        83.151109481974999        0.0000000000000000        1392.8400000000001     
  -2.0000000000000000       0.31999999999999984        1304.3390793850886        84.719472059414031        0.0000000000000000        1363.2400000000000     
  -2.0000000000000000       0.35999999999999988        1274.2655404498837        86.177016396828023        0.0000000000000000        1333.9600000000000     
  -2.0000000000000000       0.39999999999999991        1244.6048583961565        87.518666604808232        0.0000000000000000        1305.0000000000000     
  -2.0000000000000000       0.43999999999999995        1215.3597835686705        88.739401582604899        0.0000000000000000        1276.3600000000001     
  -2.0000000000000000       0.47999999999999998        1186.5328624499853        89.834262375223460        0.0000000000000000        1248.0400000000000     
  -2.0000000000000000       0.52000000000000002        1158.1264434317891        90.798359312093041        0.0000000000000000        1220.0400000000000     
  -2.0000000000000000       0.56000000000000005        1130.1426825728595        91.626879250406361        0.0000000000000000        1192.3599999999999     
  -2.0000000000000000       0.60000000000000009        1102.5835493457598        92.315092570439063        0.0000000000000000        1164.9999999999998     
  -2.0000000000000000       0.64000000000000012        1075.4508323723167        92.858360095314112        0.0000000000000000        1137.9599999999998     
  -2.0000000000000000       0.68000000000000016        1048.7461451457239        93.252139913051337        0.0000000000000000        1111.2400000000000     
  -2.0000000000000000       0.72000000000000020        1022.4709317427514        93.491994274134271        0.0000000000000000        1084.8399999999999     
  -2.0000000000000000       0.75999999999999979        996.62647252460374        93.573596058706187        0.0000000000000000        1058.7600000000002     
  -2.0000000000000000       0.79999999999999982        971.21388982722783        93.492735439136851        0.0000000000000000        1033.0000000000002     
  -2.0000000000000000       0.83999999999999986        946.23415364011089        93.245326348174103        0.0000000000000000        1007.5600000000002     
  -2.0000000000000000       0.87999999999999989        921.68808727013311        92.827412992582353        0.0000000000000000        982.44000000000005     
  -2.0000000000000000       0.91999999999999993        897.57637272622742        92.235176546215897        0.0000000000000000        957.63999999999999     
  -2.0000000000000000       0.95999999999999996        873.89955507900231        91.464941612566335        0.0000000000000000        933.15999999999997     
  -2.0000000000000000        1.0000000000000000        850.65804622726500        90.513183312502875        0.0000000000000000        909.00000000000000     
  -2.0000000000000000        1.0400000000000000        827.85212861466789        89.376534607786041        0.0000000000000000        885.15999999999997     
  -2.0000000000000000        1.0800000000000001        805.48195893525190        88.051794000622607        0.0000000000000000        861.63999999999987     
  -2.0000000000000000        1.1200000000000001        783.54757183256515        86.535934046608105        0.0000000000000000        838.43999999999994     
  -2.0000000000000000        1.1600000000000001        762.04888358776589        84.826111080495423        0.0000000000000000        815.55999999999995     
  -2.0000000000000000        1.2000000000000002        740.98569579847026        82.919675689181673        0.0000000000000000        792.99999999999989     
  -2.0000000000000000        1.2400000000000002        720.35769904983681        80.814186268917439        0.0000000000000000        770.75999999999988     
  -2.0000000000000000        1.2799999999999998        700.16447657636672        78.507424302527156        0.0000000000000000        748.84000000000015     
  -2.0000000000000000        1.3199999999999998        680.40550791460919        75.997414368006986        0.0000000000000000        727.24000000000012     
  -2.0000000000000000        1.3599999999999999        661.08017254905644        73.282449801027440        0.0000000000000000        705.96000000000004     
  -2.0000000000000000        1.3999999999999999        642.18775354735772        70.361126994887570        0.0000000000000000        685.00000000000011     
  -2.0000000000000000        1.4399999999999999        623.72744118907940        67.232392399181649        0.0000000000000000        664.36000000000001     
  -2.0000000000000000        1.4800000000000000        605.69833658638890        63.895609880312300        0.0000000000000000        644.04000000000008     
  -2.0000000000000000        1.5200000000000000        588.09945529619654        60.350658764549024        0.0000000000000000        624.04000000000008     
  -2.0000000000000000        1.5600000000000001        570.92973092478132        56.598082996582924        0.0000000000000000        604.36000000000001     
  -2.0000000000000000        1.6000000000000001        554.18801872513359        52.639325222909598        0.0000000000000000        585.00000000000000     
  -2.0000000000000000        1.6400000000000001        537.87309918682513        48.477110194832925        0.0000000000000000        565.95999999999992     
  -2.0000000000000000        1.6800000000000002        521.98368161789040        44.116101491228989        0.0000000000000000        547.24000000000001     
  -2.0000000000000000        1.7200000000000002        506.51840772103969        39.564090283614760        0.0000000000000000        528.83999999999992     
  -2.0000000000000000        1.7599999999999998        491.47585516147592        34.834287741289160        0.0000000000000000        510.76000000000005     
  -2.0000000000000000        1.7999999999999998        476.85454112811203        29.950108316351084        0.0000000000000000        493.00000000000006     
  -2.0000000000000000        1.8399999999999999        462.65292588895318        24.956154993566386        0.0000000000000000        475.56000000000006     
  -2.0000000000000000        1.8799999999999999        448.86941633876631        19.946617249183749        0.0000000000000000        458.44000000000005     
  -2.0000000000000000        1.9199999999999999        435.50236954188949        15.149165408678277        0.0000000000000000        441.64000000000004     
  -2.0000000000000000        1.9600000000000000        422.55009626655010        11.192666842563371        0.0000000000000000        425.15999999999997     
  -2.0000000000000000        2.0000000000000000        410.01086448717615        9.6450541370799474        0.0000000000000000        409.00000000000000     
  -1.9600000000000000       -2.0000000000000000        3408.2975289166170        4.8528984141881359        0.0000000000000000        3421.1906559999998     
  -1.9600000000000000       -1.9600000000000000        3366.1301452796288        3.3426522073331757        0.0000000000000000        3374.6178559999989     
  -1.9600000000000000       -1.9199999999999999        3323.9549913871924        3.5774254122031430        0.0000000000000000        3328.3650559999992     
  -1.9600000000000000       -1.8799999999999999        3281.7804484321205        5.0028162884486962        0.0000000000000000        3282.4322559999991     
  -1.9600000000000000       -1.8400000000000001        3239.6149899184566        6.6933248153506693        0.0000000000000000        3236.8194559999993     
  -1.9600000000000000       -1.8000000000000000        3197.4671679157800        8.3300550376825608        0.0000000000000000        3191.5266559999991     
  -1.9600000000000000       -1.7600000000000000        3155.3456060406279        9.8188546374316452        0.0000000000000000        3146.5538559999991     
  -1.9600000000000000       -1.7200000000000000        3113.2589913556476        11.127124914589695        0.0000000000000000        3101.9010559999992     
  -1.9600000000000000       -1.6799999999999999        3071.2160646694283        12.242723561671244        0.0000000000000000        3057.5682559999991     
  -1.9600000000000000       -1.6400000000000001        3029.2256107383328        13.161896142852029        0.0000000000000000        3013.5554560000000     
  -1.9600000000000000       -1.6000000000000001        2987.2964484711592        13.885025536525523        0.0000000000000000        2969.8626559999993     
  -1.9600000000000000       -1.5600000000000001        2945.4374211314971        14.414926503648504        0.0000000000000000        2926.4898560000001     
  -1.9600000000000000       -1.5200000000000000        2903.6573865416758        14.756107761032697        0.0000000000000000        2883.4370559999988     
  -1.9600000000000000       -1.4800000000000000        2861.9652072846548        14.914469264452698        0.0000000000000000        2840.7042560000000     
  -1.9600000000000000       -1.4399999999999999        2820.3697409060078        14.897228892865138        0.0000000000000000        2798.2914559999990     
  -1.9600000000000000       -1.3999999999999999        2778.8798301126189        14.713016115388310        0.0000000000000000        2756.1986560000000     
  -1.9600000000000000       -1.3599999999999999        2737.5042929702286        14.372115912200059        0.0000000000000000        2714.4258559999989     
  -1.9600000000000000       -1.3199999999999998        2696.2519130978508        13.886912299949401        0.0000000000000000        2672.9730559999998     
  -1.9600000000000000       -1.2800000000000000        2655.1314298591569        13.272605638696303        0.0000000000000000        2631.8402559999995     
  -1.9600000000000000       -1.2400000000000000        2614.1515285494424        12.548362936398506        0.0000000000000000        2591.0274559999998     
  -1.9600000000000000       -1.2000000000000000        2573.3208305797634        11.739139141197867        0.0000000000000000        2550.5346559999998     
  -1.9600000000000000       -1.1600000000000001        2532.6478836552014        10.878530600315166        0.0000000000000000        2510.3618559999995     
  -1.9600000000000000       -1.1200000000000001        2492.1411519479188        10.013048453687484        0.0000000000000000        2470.5090559999994     
  -1.9600000000000000       -1.0800000000000001        2451.8090062659794        9.2077721818751765        0.0000000000000000        2430.9762559999999     
  -1.9600000000000000       -1.0400000000000000        2411.6597146608437        8.5513725849486768        0.0000000000000000        2391.7634559999992     
  -1.9600000000000000       -1.0000000000000000        2371.7014384351096        8.1536933027645055        0.0000000000000000        2352.8706559999996     
  -1.9600000000000000      -0.95999999999999996        2331.9422363193335        8.1242770582683939        0.0000000000000000        2314.2978559999992     
  -1.9600000000000000      -0.91999999999999993        2292.3900705079468        8.5313118126757654        0.0000000000000000        2276.0450559999995     
  -1.9600000000000000      -0.87999999999999989        2253.0528127147300        9.3725790261718913        0.0000000000000000        2238.1122559999994     
  -1.9600000000000000      -0.84000000000000008        2213.9382502236585        10.589310441379391        0.0000000000000000        2200.4994559999996     
  -1.9600000000000000      -0.80000000000000004        2175.0540919318046        12.103794243978362        0.0000000000000000        2163.2066559999994     
  -1.9600000000000000      -0.76000000000000001        2136.4079743883085        13.845797171535050        0.0000000000000000        2126.2338559999994     
  -1.9600000000000000      -0.71999999999999997        2098.0074678267301        15.760635451288502        0.0000000000000000        2089.5810559999991     
  -1.9600000000000000      -0.67999999999999994        2059.8600821919281        17.807807541065355        0.0000000000000000        2053.2482559999994     
  -1.9600000000000000      -0.63999999999999990        2021.9732731629520        19.957329488004980        0.0000000000000000        2017.2354559999994     
  -1.9600000000000000      -0.60000000000000009        1984.3544481703029        22.186473354217544        0.0000000000000000        1981.5426559999994     
  -1.9600000000000000      -0.56000000000000005        1947.0109724085814        24.477419788061418        0.0000000000000000        1946.1698560000002     
  -1.9600000000000000      -0.52000000000000002        1909.9501748445073        26.815685544733807        0.0000000000000000        1911.1170559999994     
  -1.9600000000000000      -0.47999999999999998        1873.1793542220439        29.189090817378016        0.0000000000000000        1876.3842560000001     
  -1.9600000000000000      -0.43999999999999995        1836.7057850627352        31.587079052230571        0.0000000000000000        1841.9714559999991     
  -1.9600000000000000      -0.39999999999999991        1800.5367236609200        34.000265347220967        0.0000000000000000        1807.8786560000001     
  -1.9600000000000000      -0.36000000000000010        1764.6794140790189        36.420130153522749        0.0000000000000000        1774.1058559999999     
  -1.9600000000000000      -0.32000000000000006        1729.1410938352965        38.838807647719598        0.0000000000000000        1740.6530560000001     
  -1.9600000000000000      -0.28000000000000003        1693.9289892433335        41.248935615464539        0.0000000000000000        1707.5202560000000     
  -1.9600000000000000      -0.23999999999999999        1659.0502796317342        43.643544704836977        0.0000000000000000        1674.7074560000001     
  -1.9600000000000000      -0.19999999999999996        1624.5120472500603        46.015974766228304        0.0000000000000000        1642.2146559999999     
  -1.9600000000000000      -0.15999999999999992        1590.3212295592130        48.359811889485073        0.0000000000000000        1610.0418559999998     
  -1.9600000000000000      -0.12000000000000011        1556.4845778586641        50.668838764341544        0.0000000000000000        1578.1890559999999     
  -1.9600000000000000       -8.0000000000000071E-002   1523.0086178994425        52.936995245422530        0.0000000000000000        1546.6562559999998     
  -1.9600000000000000       -4.0000000000000036E-002   1489.8996105373699        55.158345612389013        0.0000000000000000        1515.4434559999997     
  -1.9600000000000000        0.0000000000000000        1457.1635123699416        57.327051790854092        0.0000000000000000        1484.5506559999999     
  -1.9600000000000000        4.0000000000000036E-002   1424.8059367488349        59.437349661414359        0.0000000000000000        1453.9778559999997     
  -1.9600000000000000        8.0000000000000071E-002   1392.8321249150067        61.483529189721722        0.0000000000000000        1423.7250559999998     
  -1.9600000000000000       0.12000000000000011        1361.2469428674849        63.459916986683716        0.0000000000000000        1393.7922559999997     
  -1.9600000000000000       0.16000000000000014        1330.0548888475787        65.360861755686628        0.0000000000000000        1364.1794559999996     
  -1.9600000000000000       0.20000000000000018        1299.2601082633519        67.180727609339300        0.0000000000000000        1334.8866559999997     
  -1.9600000000000000       0.24000000000000021        1268.8664206342692        68.913901034047683        0.0000000000000000        1305.9138559999997     
  -1.9600000000000000       0.27999999999999980        1238.8773496472022        70.554799080609740        0.0000000000000000        1277.2610560000001     
  -1.9600000000000000       0.31999999999999984        1209.2961532538357        72.097878237034251        0.0000000000000000        1248.9282559999999     
  -1.9600000000000000       0.35999999999999988        1180.1258529856750        73.537641951027638        0.0000000000000000        1220.9154559999999     
  -1.9600000000000000       0.39999999999999991        1151.3692546599377        74.868648622194030        0.0000000000000000        1193.2226559999999     
  -1.9600000000000000       0.43999999999999995        1123.0289568463231        76.085519778102764        0.0000000000000000        1165.8498559999998     
  -1.9600000000000000       0.47999999999999998        1095.1073567102612        77.182948363884023        0.0000000000000000        1138.7970559999999     
  -1.9600000000000000       0.52000000000000002        1067.6066558127241        78.155706254821595        0.0000000000000000        1112.0642559999999     
  -1.9600000000000000       0.56000000000000005        1040.5288658961690        78.998651973620753        0.0000000000000000        1085.6514559999998     
  -1.9600000000000000       0.60000000000000009        1013.8758146602086        79.706737581491751        0.0000000000000000        1059.5586559999997     
  -1.9600000000000000       0.64000000000000012        987.64915152498361        80.275015771754099        0.0000000000000000        1033.7858559999997     
  -1.9600000000000000       0.68000000000000016        961.85035338196394        80.698646198840024        0.0000000000000000        1008.3330559999997     
  -1.9600000000000000       0.72000000000000020        936.48073033450419        80.972901981594347        0.0000000000000000        983.20025599999974     
  -1.9600000000000000       0.75999999999999979        911.54143142713656        81.093175849045039        0.0000000000000000        958.38745599999993     
  -1.9600000000000000       0.79999999999999982        887.03345036453175        81.054986156782945        0.0000000000000000        933.89465599999994     
  -1.9600000000000000       0.83999999999999986        862.95763121841082        80.853982558589252        0.0000000000000000        909.72185600000000     
  -1.9600000000000000       0.87999999999999989        839.31467412025449        80.485951892830855        0.0000000000000000        885.86905599999989     
  -1.9600000000000000       0.91999999999999993        816.10514066179530        79.946823667193527        0.0000000000000000        862.33625599999982     
  -1.9600000000000000       0.95999999999999996        793.32945822723923        79.232676010267980        0.0000000000000000        839.12345599999992     
  -1.9600000000000000        1.0000000000000000        770.98792370583760        78.339741309901726        0.0000000000000000        816.23065599999995     
  -1.9600000000000000        1.0400000000000000        749.08070715301801        77.264412400726656        0.0000000000000000        793.65785599999981     
  -1.9600000000000000        1.0800000000000001        727.60785544095052        76.003249110906665        0.0000000000000000        771.40505599999983     
  -1.9600000000000000        1.1200000000000001        706.56929590192522        74.552984947602681        0.0000000000000000        749.47225599999990     
  -1.9600000000000000        1.1600000000000001        685.96483996163079        72.910535025465336        0.0000000000000000        727.85945599999980     
  -1.9600000000000000        1.2000000000000002        665.79418676195564        71.073004708595704        0.0000000000000000        706.56665599999974     
  -1.9600000000000000        1.2400000000000002        646.05692677775005        69.037700068747100        0.0000000000000000        685.59385599999973     
  -1.9600000000000000        1.2799999999999998        626.75254542271796        66.802140502159972        0.0000000000000000        664.94105600000000     
  -1.9600000000000000        1.3199999999999998        607.88042664676686        64.364074827115985        0.0000000000000000        644.60825599999998     
  -1.9600000000000000        1.3599999999999999        589.43985652755146        61.721502746839619        0.0000000000000000        624.59545599999990     
  -1.9600000000000000        1.3999999999999999        571.43002684941530        58.872704052664410        0.0000000000000000        604.90265599999998     
  -1.9600000000000000        1.4399999999999999        553.85003867774867        55.816280246921892        0.0000000000000000        585.52985600000000     
  -1.9600000000000000        1.4800000000000000        536.69890592382944        52.551216788325966        0.0000000000000000        566.47705599999995     
  -1.9600000000000000        1.5200000000000000        519.97555890254807        49.076978624582132        0.0000000000000000        547.74425599999995     