variables = "x" "y" "f" "rmse" "EI" "Exact"
 zone i=         101  j=         101  datapacking=point
  -2.0000000000000000       -2.0000000000000000        3189.7105304126026        119.51528347175696        0.0000000000000000        3609.0000000000000     
  -2.0000000000000000       -1.9600000000000000        3158.3787680085670        115.47725382250945        0.0000000000000000        3561.1599999999999     
  -2.0000000000000000       -1.9199999999999999        3126.9493468921437        111.57655590151344        0.0000000000000000        3513.6399999999999     
  -2.0000000000000000       -1.8799999999999999        3095.4272413097360        107.80674467462947        0.0000000000000000        3466.4399999999996     
  -2.0000000000000000       -1.8400000000000001        3063.8175150193429        104.16107332804469        0.0000000000000000        3419.5599999999995     
  -2.0000000000000000       -1.8000000000000000        3032.1253167561526        100.63253473755435        0.0000000000000000        3373.0000000000000     
  -2.0000000000000000       -1.7600000000000000        3000.3558752435501        97.213907519950197        0.0000000000000000        3326.7599999999998     
  -2.0000000000000000       -1.7200000000000000        2968.5144926481453        93.897810612156050        0.0000000000000000        3280.8399999999997     
  -2.0000000000000000       -1.6799999999999999        2936.6065294720911        90.676780841736417        0.0000000000000000        3235.2399999999998     
  -2.0000000000000000       -1.6400000000000001        2904.6373824063203        87.543370235317269        0.0000000000000000        3189.9600000000005     
  -2.0000000000000000       -1.6000000000000001        2872.6124614080190        84.490240129194191        0.0000000000000000        3144.9999999999995     
  -2.0000000000000000       -1.5600000000000001        2840.5371667759036        81.510250019213601        0.0000000000000000        3100.3600000000006     
  -2.0000000000000000       -1.5200000000000000        2808.4168662233142        78.596539542464626        0.0000000000000000        3056.0399999999995     
  -2.0000000000000000       -1.4800000000000000        2776.2568719484270        75.742601148128415        0.0000000000000000        3012.0400000000004     
  -2.0000000000000000       -1.4399999999999999        2744.0624176991123        72.942345804001420        0.0000000000000000        2968.3599999999997     
  -2.0000000000000000       -1.3999999999999999        2711.8386358327125        70.190156088068335        0.0000000000000000        2925.0000000000005     
  -2.0000000000000000       -1.3599999999999999        2679.5905343686181        67.480931132310175        0.0000000000000000        2881.9599999999996     
  -2.0000000000000000       -1.3199999999999998        2647.3229740452089        64.810119729763358        0.0000000000000000        2839.2400000000002     
  -2.0000000000000000       -1.2800000000000000        2615.0406479656094        62.173745475028909        0.0000000000000000        2796.8400000000001     
  -2.0000000000000000       -1.2400000000000000        2582.7480786631359        59.568415434352964        0.0000000000000000        2754.7600000000002     
  -2.0000000000000000       -1.2000000000000000        2550.4496318153115        56.991323898476956        0.0000000000000000        2713.0000000000005     
  -2.0000000000000000       -1.1600000000000001        2518.1495321645789        54.440250278320875        0.0000000000000000        2671.5600000000004     
  -2.0000000000000000       -1.1200000000000001        2485.8518794371203        51.913556961635585        0.0000000000000000        2630.4400000000001     
  -2.0000000000000000       -1.0800000000000001        2453.5606642546782        49.410184602263008        0.0000000000000000        2589.6399999999999     
  -2.0000000000000000       -1.0400000000000000        2421.2797840383000        46.929648438065513        0.0000000000000000        2549.1600000000003     
  -2.0000000000000000       -1.0000000000000000        2389.0130589042392        44.472035090633447        0.0000000000000000        2509.0000000000000     
  -2.0000000000000000      -0.95999999999999996        2356.7642475540642        42.038000165137504        0.0000000000000000        2469.1600000000003     
  -2.0000000000000000      -0.91999999999999993        2324.5370631612032        39.628768307880335        0.0000000000000000        2429.6399999999999     
  -2.0000000000000000      -0.87999999999999989        2292.3351892491637        37.246140332250945        0.0000000000000000        2390.4400000000001     
  -2.0000000000000000      -0.84000000000000008        2260.1622955693028        34.892502444786267        0.0000000000000000        2351.5599999999999     
  -2.0000000000000000      -0.80000000000000004        2228.0220539737065        32.570847352359081        0.0000000000000000        2313.0000000000000     
  -2.0000000000000000      -0.76000000000000001        2195.9181542861488        30.284808625549029        0.0000000000000000        2274.7599999999998     
  -2.0000000000000000      -0.71999999999999997        2163.8543201707662        28.038711196954146        0.0000000000000000        2236.8399999999997     
  -2.0000000000000000      -0.67999999999999994        2131.8343250019689        25.837651223765068        0.0000000000000000        2199.2399999999998     
  -2.0000000000000000      -0.63999999999999990        2099.8620077312671        23.687612045280190        0.0000000000000000        2161.9600000000000     
  -2.0000000000000000      -0.60000000000000009        2067.9412887567896        21.595636990790272        0.0000000000000000        2124.9999999999995     
  -2.0000000000000000      -0.56000000000000005        2036.0761857945481        19.570083806276021        0.0000000000000000        2088.3600000000006     
  -2.0000000000000000      -0.52000000000000002        2004.2708297502259        17.620995942701299        0.0000000000000000        2052.0399999999995     
  -2.0000000000000000      -0.47999999999999998        1972.5294805950407        15.760647843901300        0.0000000000000000        2016.0400000000002     
  -2.0000000000000000      -0.43999999999999995        1940.8565432452315        14.004319722825242        0.0000000000000000        1980.3599999999997     
  -2.0000000000000000      -0.39999999999999991        1909.2565834456482        12.371364212700971        0.0000000000000000        1945.0000000000002     
  -2.0000000000000000      -0.36000000000000010        1877.7343436593956        10.886502909110582        0.0000000000000000        1909.9600000000003     
  -2.0000000000000000      -0.32000000000000006        1846.2947589623227        9.5810050555255675        0.0000000000000000        1875.2400000000002     
  -2.0000000000000000      -0.28000000000000003        1814.9429729452831        8.4925398672819039        0.0000000000000000        1840.8400000000001     
  -2.0000000000000000      -0.23999999999999999        1783.6843536233655        7.6611223435563947        0.0000000000000000        1806.7600000000002     
  -2.0000000000000000      -0.19999999999999996        1752.5245089491955        7.1180824613036036        0.0000000000000000        1773.0000000000000     
  -2.0000000000000000      -0.15999999999999992        1721.4692951144107        6.8694399179431169        0.0000000000000000        1739.5600000000002     
  -2.0000000000000000      -0.12000000000000011        1690.5248105132641        6.8847535215320477        0.0000000000000000        1706.4399999999998     
  -2.0000000000000000       -8.0000000000000071E-002   1659.6973853172685        7.1032219496795985        0.0000000000000000        1673.6399999999999     
  -2.0000000000000000       -4.0000000000000036E-002   1628.9935725903933        7.4529710666198072        0.0000000000000000        1641.1600000000001     
  -2.0000000000000000        0.0000000000000000        1598.4201579540686        7.8683692770876581        0.0000000000000000        1609.0000000000000     
  -2.0000000000000000        4.0000000000000036E-002   1567.9841953012810        8.2975849712541727        0.0000000000000000        1577.1599999999999     
  -2.0000000000000000        8.0000000000000071E-002   1537.6930337392414        8.7027174230506219        0.0000000000000000        1545.6399999999999     
  -2.0000000000000000       0.12000000000000011        1507.5543077840566        9.0571036558159186        0.0000000000000000        1514.4399999999998     
  -2.0000000000000000       0.16000000000000014        1477.5759130586093        9.3423542530567545        0.0000000000000000        1483.5599999999999     
  -2.0000000000000000       0.20000000000000018        1447.7659814419321        9.5460225039863573        0.0000000000000000        1453.0000000000000     
  -2.0000000000000000       0.24000000000000021        1418.1328562270510        9.6599430387908498        0.0000000000000000        1422.7600000000000     
  -2.0000000000000000       0.27999999999999980        1388.6850672848386        9.6791221913498511        0.0000000000000000        1392.8400000000001     
  -2.0000000000000000       0.31999999999999984        1359.4313062356387        9.6009942633208425        0.0000000000000000        1363.2400000000000     
  -2.0000000000000000       0.35999999999999988        1330.3804013040799        9.4249561018989816        0.0000000000000000        1333.9600000000000     
  -2.0000000000000000       0.39999999999999991        1301.5412871786693        9.1520749719372994        0.0000000000000000        1305.0000000000000     
  -2.0000000000000000       0.43999999999999995        1272.9229659301791        8.7849503268385476        0.0000000000000000        1276.3600000000001     
  -2.0000000000000000       0.47999999999999998        1244.5344667893523        8.3277003723428500        0.0000000000000000        1248.0400000000000     
  -2.0000000000000000       0.52000000000000002        1216.3848077776938        7.7860780113306163        0.0000000000000000        1220.0400000000000     
  -2.0000000000000000       0.56000000000000005        1188.4829577265054        7.1677900444901885        0.0000000000000000        1192.3599999999999     
  -2.0000000000000000       0.60000000000000009        1160.8377982946558        6.4831266410697816        0.0000000000000000        1164.9999999999998     
  -2.0000000000000000       0.64000000000000012        1133.4580859761927        5.7462227536192882        0.0000000000000000        1137.9599999999998     
  -2.0000000000000000       0.68000000000000016        1106.3524141002135        4.9776531161065689        0.0000000000000000        1111.2400000000000     
  -2.0000000000000000       0.72000000000000020        1079.5291748155150        4.2098456949963259        0.0000000000000000        1084.8399999999999     
  -2.0000000000000000       0.75999999999999979        1052.9965210628297        3.4984741126027643        0.0000000000000000        1058.7600000000002     
  -2.0000000000000000       0.79999999999999982        1026.7623285298478        2.9422486237818535        0.0000000000000000        1033.0000000000002     
  -2.0000000000000000       0.83999999999999986        1000.8341575887762        2.6899006967903949        0.0000000000000000        1007.5600000000002     
  -2.0000000000000000       0.87999999999999989        975.21921535747333        2.8548884320851120        0.0000000000000000        982.44000000000005     
  -2.0000000000000000       0.91999999999999993        949.92432384259973        3.3879412535773841        0.0000000000000000        957.63999999999999     
  -2.0000000000000000       0.95999999999999996        924.95590858238666        4.1464388876395200        0.0000000000000000        933.15999999999997     
  -2.0000000000000000        1.0000000000000000        900.31999790294594        5.0166644761193862        0.0000000000000000        909.00000000000000     
  -2.0000000000000000        1.0400000000000000        876.02222277245983        5.9307862414962766        0.0000000000000000        885.15999999999997     
  -2.0000000000000000        1.0800000000000001        852.06781662994854        6.8482123056249611        0.0000000000000000        861.63999999999987     
  -2.0000000000000000        1.1200000000000001        828.46161569972264        7.7420802249755045        0.0000000000000000        838.43999999999994     
  -2.0000000000000000        1.1600000000000001        805.20806476401140        8.5925632080614083        0.0000000000000000        815.55999999999995     
  -2.0000000000000000        1.2000000000000002        782.31123049168764        9.3836632302164009        0.0000000000000000        792.99999999999989     
  -2.0000000000000000        1.2400000000000002        759.77481631121282        10.101666425347107        0.0000000000000000        770.75999999999988     
  -2.0000000000000000        1.2799999999999998        737.60217727742656        10.734345068720334        0.0000000000000000        748.84000000000015     
  -2.0000000000000000        1.3199999999999998        715.79633491620280        11.270553097168914        0.0000000000000000        727.24000000000012     
  -2.0000000000000000        1.3599999999999999        694.35999204816562        11.699994171572461        0.0000000000000000        705.96000000000004     
  -2.0000000000000000        1.3999999999999999        673.29554759086841        12.013120832988069        0.0000000000000000        685.00000000000011     
  -2.0000000000000000        1.4399999999999999        652.60511134004719        12.201084624744112        0.0000000000000000        664.36000000000001     
  -2.0000000000000000        1.4800000000000000        632.29051873271328        12.255738224061993        0.0000000000000000        644.04000000000008     
  -2.0000000000000000        1.5200000000000000        612.35334559166313        12.169690911258964        0.0000000000000000        624.04000000000008     
  -2.0000000000000000        1.5600000000000001        592.79492284976095        11.936400486895465        0.0000000000000000        604.36000000000001     
  -2.0000000000000000        1.6000000000000001        573.61635125940757        11.550365476791155        0.0000000000000000        585.00000000000000     
  -2.0000000000000000        1.6400000000000001        554.81851608393572        11.007440317659757        0.0000000000000000        565.95999999999992     
  -2.0000000000000000        1.6800000000000002        536.40210177384233        10.305423239999838        0.0000000000000000        547.24000000000001     
  -2.0000000000000000        1.7200000000000002        518.36760662694087        9.4452022490400172        0.0000000000000000        528.83999999999992     
  -2.0000000000000000        1.7599999999999998        500.71535743518416        8.4331441613349227        0.0000000000000000        510.76000000000005     
  -2.0000000000000000        1.7999999999999998        483.44552411692075        7.2865783183867210        0.0000000000000000        493.00000000000006     
  -2.0000000000000000        1.8399999999999999        466.55813435277469        6.0478257575822356        0.0000000000000000        475.56000000000006     
  -2.0000000000000000        1.8799999999999999        450.05308828465149        4.8237232049955896        0.0000000000000000        458.44000000000005     
  -2.0000000000000000        1.9199999999999999        433.93017325911296        3.8921088720267818        0.0000000000000000        441.64000000000004     
  -2.0000000000000000        1.9600000000000000        418.18907856328678        3.8038060753249345        0.0000000000000000        425.15999999999997     
  -2.0000000000000000        2.0000000000000000        402.82940985584810        4.8737452347238470        0.0000000000000000        409.00000000000000     
  -1.9600000000000000       -2.0000000000000000        3081.9131891640582        99.196594715627981        0.0000000000000000        3421.1906559999998     
  -1.9600000000000000       -1.9600000000000000        3050.9833654061813        95.200223216893477        0.0000000000000000        3374.6178559999989     
  -1.9600000000000000       -1.9199999999999999        3019.9658286013300        91.362061480948000        0.0000000000000000        3328.3650559999992     
  -1.9600000000000000       -1.8799999999999999        2988.8655427849308        87.676226820338783        0.0000000000000000        3282.4322559999991     
  -1.9600000000000000       -1.8400000000000001        2957.6875591754660        84.136369345865148        0.0000000000000000        3236.8194559999993     
  -1.9600000000000000       -1.8000000000000000        2926.4370114795902        80.735697549392597        0.0000000000000000        3191.5266559999991     
  -1.9600000000000000       -1.7600000000000000        2895.1191107197092        77.467011597566596        0.0000000000000000        3146.5538559999991     
  -1.9600000000000000       -1.7200000000000000        2863.7391385013043        74.322748018438233        0.0000000000000000        3101.9010559999992     
  -1.9600000000000000       -1.6799999999999999        2832.3024316933452        71.295060652095685        0.0000000000000000        3057.5682559999991     
  -1.9600000000000000       -1.6400000000000001        2800.8143600507619        68.375929689765684        0.0000000000000000        3013.5554560000000     
  -1.9600000000000000       -1.6000000000000001        2769.2803030589721        65.557272350130717        0.0000000000000000        2969.8626559999993     
  -1.9600000000000000       -1.5600000000000001        2737.7056267758171        62.831054944194413        0.0000000000000000        2926.4898560000001     
  -1.9600000000000000       -1.5200000000000000        2706.0956606704867        60.189398211344660        0.0000000000000000        2883.4370559999988     
  -1.9600000000000000       -1.4800000000000000        2674.4556744597803        57.624678452146988        0.0000000000000000        2840.7042560000000     
  -1.9600000000000000       -1.4399999999999999        2642.7908549387366        55.129620655922743        0.0000000000000000        2798.2914559999990     
  -1.9600000000000000       -1.3999999999999999        2611.1062828049044        52.697377786737285        0.0000000000000000        2756.1986560000000     
  -1.9600000000000000       -1.3599999999999999        2579.4069094760789        50.321606502654916        0.0000000000000000        2714.4258559999989     
  -1.9600000000000000       -1.3199999999999998        2547.6975339116625        47.996522444886601        0.0000000000000000        2672.9730559999998     
  -1.9600000000000000       -1.2800000000000000        2515.9827820480286        45.716950358732333        0.0000000000000000        2631.8402559999995     
  -1.9600000000000000       -1.2400000000000000        2484.2671038299750        43.478355523423481        0.0000000000000000        2591.0274559999998     
  -1.9600000000000000       -1.2000000000000000        2452.5547870562887        41.276869270588861        0.0000000000000000        2550.5346559999998     
  -1.9600000000000000       -1.1600000000000001        2420.8499734549996        39.109310915439295        0.0000000000000000        2510.3618559999995     
  -1.9600000000000000       -1.1200000000000001        2389.1566747561747        36.973208796769988        0.0000000000000000        2470.5090559999994     
  -1.9600000000000000       -1.0800000000000001        2357.4787887570283        34.866826816820918        0.0000000000000000        2430.9762559999999     
  -1.9600000000000000       -1.0400000000000000        2325.8201153788696        32.789190181752801        0.0000000000000000        2391.7634559999992     
  -1.9600000000000000       -1.0000000000000000        2294.1843727157257        30.740130681923908        0.0000000000000000        2352.8706559999996     
  -1.9600000000000000      -0.95999999999999996        2262.5752130766641        28.720337347905762        0.0000000000000000        2314.2978559999992     
  -1.9600000000000000      -0.91999999999999993        2230.9962390243754        26.731433319737544        0.0000000000000000        2276.0450559999995     
  -1.9600000000000000      -0.87999999999999989        2199.4510194052282        24.776090506420534        0.0000000000000000        2238.1122559999994     
  -1.9600000000000000      -0.84000000000000008        2167.9431053777816        22.858188064115311        0.0000000000000000        2200.4994559999996     
  -1.9600000000000000      -0.80000000000000004        2136.4760464372675        20.983052946741061        0.0000000000000000        2163.2066559999994     
  -1.9600000000000000      -0.76000000000000001        2105.0534064363756        19.157803143409982        0.0000000000000000        2126.2338559999994     
  -1.9600000000000000      -0.71999999999999997        2073.6787796049621        17.391859214237130        0.0000000000000000        2089.5810559999991     
  -1.9600000000000000      -0.67999999999999994        2042.3558065692496        15.697684332830322        0.0000000000000000        2053.2482559999994     
  -1.9600000000000000      -0.63999999999999990        2011.0881903687705        14.091839083829674        0.0000000000000000        2017.2354559999994     
  -1.9600000000000000      -0.60000000000000009        1979.8797124751300        12.596409265814883        0.0000000000000000        1981.5426559999994     
  -1.9600000000000000      -0.56000000000000005        1948.7342488120930        11.240721897964722        0.0000000000000000        1946.1698560000002     
  -1.9600000000000000      -0.52000000000000002        1917.6557857763119        10.062778827189574        0.0000000000000000        1911.1170559999994     
  -1.9600000000000000      -0.47999999999999998        1886.6484362617639        9.1087650028655585        0.0000000000000000        1876.3842560000001     
  -1.9600000000000000      -0.43999999999999995        1855.7164556874786        8.4274613188190841        0.0000000000000000        1841.9714559999991     
  -1.9600000000000000      -0.39999999999999991        1824.8642580291498        8.0566679848274454        0.0000000000000000        1807.8786560000001     
  -1.9600000000000000      -0.36000000000000010        1794.0964318561319        8.0051380402450700        0.0000000000000000        1774.1058559999999     
  -1.9600000000000000      -0.32000000000000006        1763.4177563739950        8.2430278083957820        0.0000000000000000        1740.6530560000001     
  -1.9600000000000000      -0.28000000000000003        1732.8332174737307        8.7107654608919631        0.0000000000000000        1707.5202560000000     
  -1.9600000000000000      -0.23999999999999999        1702.3480237882186        9.3387837257321245        0.0000000000000000        1674.7074560000001     
  -1.9600000000000000      -0.19999999999999996        1671.9676223519646        10.063349659474735        0.0000000000000000        1642.2146559999999     
  -1.9600000000000000      -0.15999999999999992        1641.6977070501753        10.833099796650854        0.0000000000000000        1610.0418559999998     
  -1.9600000000000000      -0.12000000000000011        1611.5442127287834        11.609272822473711        0.0000000000000000        1578.1890559999999     
  -1.9600000000000000       -8.0000000000000071E-002   1581.5133049161386        12.363455540874881        0.0000000000000000        1546.6562559999998     
  -1.9600000000000000       -4.0000000000000036E-002   1551.6113711225489        13.075040564212552        0.0000000000000000        1515.4434559999997     
  -1.9600000000000000        0.0000000000000000        1521.8450311106726        13.729146892916175        0.0000000000000000        1484.5506559999999     
  -1.9600000000000000        4.0000000000000036E-002   1492.2211738070773        14.315105030483760        0.0000000000000000        1453.9778559999997     
  -1.9600000000000000        8.0000000000000071E-002   1462.7469852624208        14.825400770065050        0.0000000000000000        1423.7250559999998     
  -1.9600000000000000       0.12000000000000011        1433.4299390771203        15.254988346953573        0.0000000000000000        1393.7922559999997     
  -1.9600000000000000       0.16000000000000014        1404.2777720187742        15.600844675113414        0.0000000000000000        1364.1794559999996     
  -1.9600000000000000       0.20000000000000018        1375.2984590806600        15.861671332237885        0.0000000000000000        1334.8866559999997     
  -1.9600000000000000       0.24000000000000021        1346.5001885474057        16.037717359232964        0.0000000000000000        1305.9138559999997     
  -1.9600000000000000       0.27999999999999980        1317.8913370670352        16.130666196200682        0.0000000000000000        1277.2610560000001     
  -1.9600000000000000       0.31999999999999984        1289.4804447311626        16.143584452476411        0.0000000000000000        1248.9282559999999     
  -1.9600000000000000       0.35999999999999988        1261.2761898344625        16.080911616640019        0.0000000000000000        1220.9154559999999     
  -1.9600000000000000       0.39999999999999991        1233.2873585878269        15.948487577250640        0.0000000000000000        1193.2226559999999     
  -1.9600000000000000       0.43999999999999995        1205.5228058019138        15.753614688056125        0.0000000000000000        1165.8498559999998     
  -1.9600000000000000       0.47999999999999998        1177.9914144562363        15.505139905472255        0.0000000000000000        1138.7970559999999     
  -1.9600000000000000       0.52000000000000002        1150.7020571925250        15.213533884673353        0.0000000000000000        1112.0642559999999     
  -1.9600000000000000       0.56000000000000005        1123.6635582111494        14.890935182155369        0.0000000000000000        1085.6514559999998     
  -1.9600000000000000       0.60000000000000009        1096.8846551668403        14.551144399129443        0.0000000000000000        1059.5586559999997     
  -1.9600000000000000       0.64000000000000012        1070.3739610534549        14.209503342893157        0.0000000000000000        1033.7858559999997     
  -1.9600000000000000       0.68000000000000016        1044.1399260814514        13.882584218902977        0.0000000000000000        1008.3330559999997     
  -1.9600000000000000       0.72000000000000020        1018.1907995397787        13.587649742804395        0.0000000000000000        983.20025599999974     
  -1.9600000000000000       0.75999999999999979        992.53459164539618        13.341773815304615        0.0000000000000000        958.38745599999993     
  -1.9600000000000000       0.79999999999999982        967.17903537572511        13.160661908528214        0.0000000000000000        933.89465599999994     
  -1.9600000000000000       0.83999999999999986        942.13154828289498        13.057211170089808        0.0000000000000000        909.72185600000000     
  -1.9600000000000000       0.87999999999999989        917.39919443200142        13.040056362586455        0.0000000000000000        885.86905599999989     
  -1.9600000000000000       0.91999999999999993        892.98865242021657        13.112423181482608        0.0000000000000000        862.33625599999982     
  -1.9600000000000000       0.95999999999999996        868.90620389222840        13.271747788632835        0.0000000000000000        839.12345599999992     
  -1.9600000000000000        1.0000000000000000        845.15773266711130        13.510056488962899        0.0000000000000000        816.23065599999995     
  -1.9600000000000000        1.0400000000000000        821.74872446335303        13.814932327613526        0.0000000000000000        793.65785599999981     
  -1.9600000000000000        1.0800000000000001        798.68426659832858        14.170772915134847        0.0000000000000000        771.40505599999983     
  -1.9600000000000000        1.1200000000000001        775.96904818207349        14.560104383574330        0.0000000000000000        749.47225599999990     
  -1.9600000000000000        1.1600000000000001        753.60736587147494        14.964717751874664        0.0000000000000000        727.85945599999980     
  -1.9600000000000000        1.2000000000000002        731.60313732012673        15.366527603334379        0.0000000000000000        706.56665599999974     
  -1.9600000000000000        1.2400000000000002        709.95991620188670        15.748172690903289        0.0000000000000000        685.59385599999973     
  -1.9600000000000000        1.2799999999999998        688.68090722768193        16.093396435397771        0.0000000000000000        664.94105600000000     
  -1.9600000000000000        1.3199999999999998        667.76898114102460        16.387263016398787        0.0000000000000000        644.60825599999998     
  -1.9600000000000000        1.3599999999999999        647.22668969129245        16.616288802921463        0.0000000000000000        624.59545599999990     
  -1.9600000000000000        1.3999999999999999        627.05628058716047        16.768523196957304        0.0000000000000000        604.90265599999998     
  -1.9600000000000000        1.4399999999999999        607.25971242661853        16.833638864279511        0.0000000000000000        585.52985600000000     
  -1.9600000000000000        1.4800000000000000        587.83866961120020        16.803050055983963        0.0000000000000000        566.47705599999995     
  -1.9600000000000000        1.5200000000000000        568.79457723986798        16.670115482187441        0.0000000000000000        547.74425599999995     