variables = "x" "y" "f" "rmse" "EI" "Exact"
 zone i=         101  j=         101  datapacking=point
  -2.0000000000000000       -2.0000000000000000        3605.8792572223456        3.4605483217170869        0.0000000000000000        3609.0000000000000     
  -2.0000000000000000       -1.9600000000000000        3558.7553803217588        1.7337523659164114        0.0000000000000000        3561.1599999999999     
  -2.0000000000000000       -1.9199999999999999        3511.6777764352146       0.77432965009878363        0.0000000000000000        3513.6399999999999     
  -2.0000000000000000       -1.8799999999999999        3464.6559833814963        1.7389215900607897        0.0000000000000000        3466.4399999999996     
  -2.0000000000000000       -1.8400000000000001        3417.6997454007496        2.9647839335716402        0.0000000000000000        3419.5599999999995     
  -2.0000000000000000       -1.8000000000000000        3370.8190114671588        4.0808280106046233        0.0000000000000000        3373.0000000000000     
  -2.0000000000000000       -1.7600000000000000        3324.0239119136231        5.0607715234005735        0.0000000000000000        3326.7599999999998     
  -2.0000000000000000       -1.7200000000000000        3277.3247339877989        5.9076728741205260        0.0000000000000000        3280.8399999999997     
  -2.0000000000000000       -1.6799999999999999        3230.7318974069776        6.6322395158839047        0.0000000000000000        3235.2399999999998     
  -2.0000000000000000       -1.6400000000000001        3184.2559299218110        7.2494377256999236        0.0000000000000000        3189.9600000000005     
  -2.0000000000000000       -1.6000000000000001        3137.9074428824815        7.7778053968601846        0.0000000000000000        3144.9999999999995     
  -2.0000000000000000       -1.5600000000000001        3091.6971068103439        8.2392785977293066        0.0000000000000000        3100.3600000000006     
  -2.0000000000000000       -1.5200000000000000        3045.6356269642702        8.6590306153872660        0.0000000000000000        3056.0399999999995     
  -2.0000000000000000       -1.4800000000000000        2999.7337189156669        9.0649633688740732        0.0000000000000000        3012.0400000000004     
  -2.0000000000000000       -1.4399999999999999        2954.0020841188370        9.4867273930644060        0.0000000000000000        2968.3599999999997     
  -2.0000000000000000       -1.3999999999999999        2908.4513854800598        9.9541055241474243        0.0000000000000000        2925.0000000000005     
  -2.0000000000000000       -1.3599999999999999        2863.0922229110138        10.494942817708733        0.0000000000000000        2881.9599999999996     
  -2.0000000000000000       -1.3199999999999998        2817.9351083126958        11.132935330031572        0.0000000000000000        2839.2400000000002     
  -2.0000000000000000       -1.2800000000000000        2772.9904387640991        11.885818968040381        0.0000000000000000        2796.8400000000001     
  -2.0000000000000000       -1.2400000000000000        2728.2684688174622        12.764404038991175        0.0000000000000000        2754.7600000000002     
  -2.0000000000000000       -1.2000000000000000        2683.7792827474177        13.772594472691440        0.0000000000000000        2713.0000000000005     
  -2.0000000000000000       -1.1600000000000001        2639.5327695636070        14.908247887822919        0.0000000000000000        2671.5600000000004     
  -2.0000000000000000       -1.1200000000000001        2595.5386288235886        16.164559812531156        0.0000000000000000        2630.4400000000001     
  -2.0000000000000000       -1.0800000000000001        2551.8064200818180        17.531601986741002        0.0000000000000000        2589.6399999999999     
  -2.0000000000000000       -1.0400000000000000        2508.3456212113369        18.997653903552923        0.0000000000000000        2549.1600000000003     
  -2.0000000000000000       -1.0000000000000000        2465.1656735116840        20.550170542679663        0.0000000000000000        2509.0000000000000     
  -2.0000000000000000      -0.95999999999999996        2422.2759870114378        22.176451246966110        0.0000000000000000        2469.1600000000003     
  -2.0000000000000000      -0.91999999999999993        2379.6859273433793        23.864036454767316        0.0000000000000000        2429.6399999999999     
  -2.0000000000000000      -0.87999999999999989        2337.4048017141749        25.600937166052898        0.0000000000000000        2390.4400000000001     
  -2.0000000000000000      -0.84000000000000008        2295.4418448666102        27.375742250462554        0.0000000000000000        2351.5599999999999     
  -2.0000000000000000      -0.80000000000000004        2253.8062050403087        29.177664208974448        0.0000000000000000        2313.0000000000000     
  -2.0000000000000000      -0.76000000000000001        2212.5069299247689        30.996535330380677        0.0000000000000000        2274.7599999999998     
  -2.0000000000000000      -0.71999999999999997        2171.5529526090822        32.822795314348035        0.0000000000000000        2236.8399999999997     
  -2.0000000000000000      -0.67999999999999994        2130.9530775278681        34.647460629743996        0.0000000000000000        2199.2399999999998     
  -2.0000000000000000      -0.63999999999999990        2090.7159663970224        36.462097158826587        0.0000000000000000        2161.9600000000000     
  -2.0000000000000000      -0.60000000000000009        2050.8501241431795        38.258787611014405        0.0000000000000000        2124.9999999999995     
  -2.0000000000000000      -0.56000000000000005        2011.3638848297405        40.030108338477739        0.0000000000000000        2088.3600000000006     
  -2.0000000000000000      -0.52000000000000002        1972.2653975688727        41.769100547005010        0.0000000000000000        2052.0399999999995     
  -2.0000000000000000      -0.47999999999999998        1933.5626124296678        43.469250406411831        0.0000000000000000        2016.0400000000002     
  -2.0000000000000000      -0.43999999999999995        1895.2632663340182        45.124470016815707        0.0000000000000000        1980.3599999999997     
  -2.0000000000000000      -0.39999999999999991        1857.3748689444028        46.729079948992286        0.0000000000000000        1945.0000000000002     
  -2.0000000000000000      -0.36000000000000010        1819.9046885410198        48.277793981038187        0.0000000000000000        1909.9600000000003     
  -2.0000000000000000      -0.32000000000000006        1782.8597378866971        49.765706699536864        0.0000000000000000        1875.2400000000002     
  -2.0000000000000000      -0.28000000000000003        1746.2467600817899        51.188283494669584        0.0000000000000000        1840.8400000000001     
  -2.0000000000000000      -0.23999999999999999        1710.0722144055753        52.541348046845371        0.0000000000000000        1806.7600000000002     
  -2.0000000000000000      -0.19999999999999996        1674.3422621481577        53.821076936721134        0.0000000000000000        1773.0000000000000     
  -2.0000000000000000      -0.15999999999999992        1639.0627524225265        55.023992142887437        0.0000000000000000        1739.5600000000002     
  -2.0000000000000000      -0.12000000000000011        1604.2392079698611        56.146955147422638        0.0000000000000000        1706.4399999999998     
  -2.0000000000000000       -8.0000000000000071E-002   1569.8768109475486        57.187164943034148        0.0000000000000000        1673.6399999999999     
  -2.0000000000000000       -4.0000000000000036E-002   1535.9803888561428        58.142154909830346        0.0000000000000000        1641.1600000000001     
  -2.0000000000000000        0.0000000000000000        1502.5544033131437        59.009790592450670        0.0000000000000000        1609.0000000000000     
  -2.0000000000000000        4.0000000000000036E-002   1469.6029446132588        59.788259847803367        0.0000000000000000        1577.1599999999999     
  -2.0000000000000000        8.0000000000000071E-002   1437.1297296077819        60.476065336387755        0.0000000000000000        1545.6399999999999     
  -2.0000000000000000       0.12000000000000011        1405.1381041813866        61.072015224136031        0.0000000000000000        1514.4399999999998     
  -2.0000000000000000       0.16000000000000014        1373.6310510656322        61.575220298727395        0.0000000000000000        1483.5599999999999     
  -2.0000000000000000       0.20000000000000018        1342.6112008513874        61.985086807008599        0.0000000000000000        1453.0000000000000     
  -2.0000000000000000       0.24000000000000021        1312.0808433286720        62.301314731357515        0.0000000000000000        1422.7600000000000     
  -2.0000000000000000       0.27999999999999980        1282.0419388175933        62.523896717279634        0.0000000000000000        1392.8400000000001     
  -2.0000000000000000       0.31999999999999984        1252.4961294838567        62.653114803551574        0.0000000000000000        1363.2400000000000     
  -2.0000000000000000       0.35999999999999988        1223.4447506378629        62.689542892695549        0.0000000000000000        1333.9600000000000     
  -2.0000000000000000       0.39999999999999991        1194.8888420220455        62.634047903994691        0.0000000000000000        1305.0000000000000     
  -2.0000000000000000       0.43999999999999995        1166.8291590824365        62.487793191555149        0.0000000000000000        1276.3600000000001     
  -2.0000000000000000       0.47999999999999998        1139.2661842281805        62.252243174004114        0.0000000000000000        1248.0400000000000     
  -2.0000000000000000       0.52000000000000002        1112.2001380815627        61.929174108854568        0.0000000000000000        1220.0400000000000     
  -2.0000000000000000       0.56000000000000005        1085.6309907080131        61.520680439800117        0.0000000000000000        1192.3599999999999     
  -2.0000000000000000       0.60000000000000009        1059.5584728421518        61.029192996464637        0.0000000000000000        1164.9999999999998     
  -2.0000000000000000       0.64000000000000012        1033.9820871006805        60.457495746561747        0.0000000000000000        1137.9599999999998     
  -2.0000000000000000       0.68000000000000016        1008.9011191796153        59.808750580186704        0.0000000000000000        1111.2400000000000     
  -2.0000000000000000       0.72000000000000020        984.31464904453514        59.086527221787044        0.0000000000000000        1084.8399999999999     
  -2.0000000000000000       0.75999999999999979        960.22156211454330        58.294843614376958        0.0000000000000000        1058.7600000000002     
  -2.0000000000000000       0.79999999999999982        936.62056042847598        57.438213626225895        0.0000000000000000        1033.0000000000002     
  -2.0000000000000000       0.83999999999999986        913.51017380651228        56.521706635852297        0.0000000000000000        1007.5600000000002     
  -2.0000000000000000       0.87999999999999989        890.88877100415903        55.551023129707090        0.0000000000000000        982.44000000000005     
  -2.0000000000000000       0.91999999999999993        868.75457085302241        54.532585385296038        0.0000000000000000        957.63999999999999     
  -2.0000000000000000       0.95999999999999996        847.10565339971708        53.473645392617087        0.0000000000000000        933.15999999999997     
  -2.0000000000000000        1.0000000000000000        825.93997103097990        52.382417792899560        0.0000000000000000        909.00000000000000     
  -2.0000000000000000        1.0400000000000000        805.25535959523313        51.268234756871372        0.0000000000000000        885.15999999999997     
  -2.0000000000000000        1.0800000000000001        785.04954951960735        50.141723941970454        0.0000000000000000        861.63999999999987     
  -2.0000000000000000        1.1200000000000001        765.32017695525337        49.015012093365499        0.0000000000000000        838.43999999999994     
  -2.0000000000000000        1.1600000000000001        746.06479507248059        47.901953301329030        0.0000000000000000        815.55999999999995     
  -2.0000000000000000        1.2000000000000002        727.28088396094881        46.818376008163234        0.0000000000000000        792.99999999999989     
  -2.0000000000000000        1.2400000000000002        708.96585916756794        45.782318246037761        0.0000000000000000        770.75999999999988     
  -2.0000000000000000        1.2799999999999998        691.11708011274368        44.814206484902677        0.0000000000000000        748.84000000000015     
  -2.0000000000000000        1.3199999999999998        673.73185850790378        43.936940038632493        0.0000000000000000        727.24000000000012     
  -2.0000000000000000        1.3599999999999999        656.80746676609760        43.175807044190790        0.0000000000000000        705.96000000000004     
  -2.0000000000000000        1.3999999999999999        640.34114640689131        42.558177700915671        0.0000000000000000        685.00000000000011     
  -2.0000000000000000        1.4399999999999999        624.33011646056457        42.112894510215497        0.0000000000000000        664.36000000000001     
  -2.0000000000000000        1.4800000000000000        608.77158157416761        41.869340352845335        0.0000000000000000        644.04000000000008     
  -2.0000000000000000        1.5200000000000000        593.66273699077919        41.856228500999876        0.0000000000000000        624.04000000000008     
  -2.0000000000000000        1.5600000000000001        579.00076924753284        42.100235131160105        0.0000000000000000        604.36000000000001     
  -2.0000000000000000        1.6000000000000001        564.78285599348510        42.624603459976427        0.0000000000000000        585.00000000000000     
  -2.0000000000000000        1.6400000000000001        551.00616580189580        43.447937934230666        0.0000000000000000        565.95999999999992     
  -2.0000000000000000        1.6800000000000002        537.66785797133252        44.583387338001735        0.0000000000000000        547.24000000000001     
  -2.0000000000000000        1.7200000000000002        524.76508232805554        46.038374149572910        0.0000000000000000        528.83999999999992     
  -2.0000000000000000        1.7599999999999998        512.29497902723870        47.814876461207923        0.0000000000000000        510.76000000000005     
  -2.0000000000000000        1.7999999999999998        500.25467834999927        49.910173968521988        0.0000000000000000        493.00000000000006     
  -2.0000000000000000        1.8399999999999999        488.64130049431606        52.317873879909335        0.0000000000000000        475.56000000000006     
  -2.0000000000000000        1.8799999999999999        477.45195537002201        55.029023574864418        0.0000000000000000        458.44000000000005     
  -2.0000000000000000        1.9199999999999999        466.68374238442539        58.033149837495664        0.0000000000000000        441.64000000000004     
  -2.0000000000000000        1.9600000000000000        456.33375023055032        61.319124240988160        0.0000000000000000        425.15999999999997     
  -2.0000000000000000        2.0000000000000000        446.39905666757750        64.875815909797609        0.0000000000000000        409.00000000000000     
  -1.9600000000000000       -2.0000000000000000        3455.1737792314370        15.827294570215440        0.0000000000000000        3421.1906559999998     
  -1.9600000000000000       -1.9600000000000000        3409.0262121836995        15.168088899001521        0.0000000000000000        3374.6178559999989     
  -1.9600000000000000       -1.9199999999999999        3362.9309583679415        14.671820613307874        0.0000000000000000        3328.3650559999992     
  -1.9600000000000000       -1.8799999999999999        3316.8973632224361        14.294290446886892        0.0000000000000000        3282.4322559999991     
  -1.9600000000000000       -1.8400000000000001        3270.9349750858373        13.991321835701644        0.0000000000000000        3236.8194559999993     
  -1.9600000000000000       -1.8000000000000000        3225.0535440129452        13.721888991361727        0.0000000000000000        3191.5266559999991     
  -1.9600000000000000       -1.7600000000000000        3179.2629989081752        13.450123020402110        0.0000000000000000        3146.5538559999991     
  -1.9600000000000000       -1.7200000000000000        3133.5734235896371        13.146168061720660        0.0000000000000000        3101.9010559999992     
  -1.9600000000000000       -1.6799999999999999        3087.9950328525147        12.786189718951084        0.0000000000000000        3057.5682559999991     
  -1.9600000000000000       -1.6400000000000001        3042.5381485418175        12.351886503345447        0.0000000000000000        3013.5554560000000     
  -1.9600000000000000       -1.6000000000000001        2997.2131756247827        11.829806804293572        0.0000000000000000        2969.8626559999993     
  -1.9600000000000000       -1.5600000000000001        2952.0305782723581        11.210630834108169        0.0000000000000000        2926.4898560000001     
  -1.9600000000000000       -1.5200000000000000        2907.0008559320113        10.488539994867658        0.0000000000000000        2883.4370559999988     
  -1.9600000000000000       -1.4800000000000000        2862.1345194110172        9.6607056179188948        0.0000000000000000        2840.7042560000000     
  -1.9600000000000000       -1.4399999999999999        2817.4420669546225        8.7269451828537825        0.0000000000000000        2798.2914559999990     
  -1.9600000000000000       -1.3999999999999999        2772.9339603219987        7.6896278611057935        0.0000000000000000        2756.1986560000000     
  -1.9600000000000000       -1.3599999999999999        2728.6206008481668        6.5540181578432186        0.0000000000000000        2714.4258559999989     
  -1.9600000000000000       -1.3199999999999998        2684.5123049215754        5.3297281347326839        0.0000000000000000        2672.9730559999998     
  -1.9600000000000000       -1.2800000000000000        2640.6192776257512        4.0358794144701529        0.0000000000000000        2631.8402559999995     
  -1.9600000000000000       -1.2400000000000000        2596.9515854691263        2.7230763800620510        0.0000000000000000        2591.0274559999998     
  -1.9600000000000000       -1.2000000000000000        2553.5191290653302        1.6067909022039781        0.0000000000000000        2550.5346559999998     
  -1.9600000000000000       -1.1600000000000001        2510.3316185799185        1.5940711153595899        0.0000000000000000        2510.3618559999995     
  -1.9600000000000000       -1.1200000000000001        2467.3985799811771        2.8252704460603870        0.0000000000000000        2470.5090559999994     
  -1.9600000000000000       -1.0800000000000001        2424.7294049363109        4.4176256591939769        0.0000000000000000        2430.9762559999999     
  -1.9600000000000000       -1.0400000000000000        2382.3334095769669        6.1368072292439599        0.0000000000000000        2391.7634559999992     
  -1.9600000000000000       -1.0000000000000000        2340.2198799098833        7.9269833326643147        0.0000000000000000        2352.8706559999996     
  -1.9600000000000000      -0.95999999999999996        2298.3980769916661        9.7652131560761912        0.0000000000000000        2314.2978559999992     
  -1.9600000000000000      -0.91999999999999993        2256.8772234822382        11.637498369295029        0.0000000000000000        2276.0450559999995     
  -1.9600000000000000      -0.87999999999999989        2215.6664892797116        13.533114694350587        0.0000000000000000        2238.1122559999994     
  -1.9600000000000000      -0.84000000000000008        2174.7749771503723        15.442842382607306        0.0000000000000000        2200.4994559999996     
  -1.9600000000000000      -0.80000000000000004        2134.2117083556941        17.358302714462372        0.0000000000000000        2163.2066559999994     
  -1.9600000000000000      -0.76000000000000001        2093.9856082729520        19.271683842498646        0.0000000000000000        2126.2338559999994     
  -1.9600000000000000      -0.71999999999999997        2054.1054920121087        21.175606629684026        0.0000000000000000        2089.5810559999991     
  -1.9600000000000000      -0.67999999999999994        2014.5800500282776        23.063059216437239        0.0000000000000000        2053.2482559999994     
  -1.9600000000000000      -0.63999999999999990        1975.4178337252224        24.927370289743290        0.0000000000000000        2017.2354559999994     
  -1.9600000000000000      -0.60000000000000009        1936.6272410530937        26.762189210540434        0.0000000000000000        1981.5426559999994     
  -1.9600000000000000      -0.56000000000000005        1898.2165020995881        28.561474772695952        0.0000000000000000        1946.1698560000002     
  -1.9600000000000000      -0.52000000000000002        1860.1936646725508        30.319493051833646        0.0000000000000000        1911.1170559999994     
  -1.9600000000000000      -0.47999999999999998        1822.5665798723339        32.030812644231460        0.0000000000000000        1876.3842560000001     
  -1.9600000000000000      -0.43999999999999995        1785.3428876571115        33.690299669150640        0.0000000000000000        1841.9714559999991     
  -1.9600000000000000      -0.39999999999999991        1748.5300023981827        35.293119600317929        0.0000000000000000        1807.8786560000001     
  -1.9600000000000000      -0.36000000000000010        1712.1350984235751        36.834729012144486        0.0000000000000000        1774.1058559999999     
  -1.9600000000000000      -0.32000000000000006        1676.1650955508221        38.310876546885353        0.0000000000000000        1740.6530560000001     
  -1.9600000000000000      -0.28000000000000003        1640.6266446094369        39.717596982819622        0.0000000000000000        1707.5202560000000     
  -1.9600000000000000      -0.23999999999999999        1605.5261129495912        41.051211145757520        0.0000000000000000        1674.7074560000001     
  -1.9600000000000000      -0.19999999999999996        1570.8695699409573        42.308319010886656        0.0000000000000000        1642.2146559999999     
  -1.9600000000000000      -0.15999999999999992        1536.6627724522250        43.485797546864617        0.0000000000000000        1610.0418559999998     
  -1.9600000000000000      -0.12000000000000011        1502.9111503236336        44.580797297942929        0.0000000000000000        1578.1890559999999     
  -1.9600000000000000       -8.0000000000000071E-002   1469.6197918216340        45.590740575664867        0.0000000000000000        1546.6562559999998     
  -1.9600000000000000       -4.0000000000000036E-002   1436.7934292336568        46.513317143804564        0.0000000000000000        1515.4434559999997     
  -1.9600000000000000        0.0000000000000000        1404.4364273255333        47.346484573658692        0.0000000000000000        1484.5506559999999     
  -1.9600000000000000        4.0000000000000036E-002   1372.5527776170629        48.088462089731351        0.0000000000000000        1453.9778559999997     
  -1.9600000000000000        8.0000000000000071E-002   1341.1460960235554        48.737730504574643        0.0000000000000000        1423.7250559999998     
  -1.9600000000000000       0.12000000000000011        1310.2196252127169        49.293025887975901        0.0000000000000000        1393.7922559999997     
  -1.9600000000000000       0.16000000000000014        1279.7762424997627        49.753338827265608        0.0000000000000000        1364.1794559999996     
  -1.9600000000000000       0.20000000000000018        1249.8184710751511        50.117912753048813        0.0000000000000000        1334.8866559999997     
  -1.9600000000000000       0.24000000000000021        1220.3484915782456        50.386238676043192        0.0000000000000000        1305.9138559999997     
  -1.9600000000000000       0.27999999999999980        1191.3681536584036        50.558055320061030        0.0000000000000000        1277.2610560000001     
  -1.9600000000000000       0.31999999999999984        1162.8789875231441        50.633346612615107        0.0000000000000000        1248.9282559999999     
  -1.9600000000000000       0.35999999999999988        1134.8822154680374        50.612339707401837        0.0000000000000000        1220.9154559999999     
  -1.9600000000000000       0.39999999999999991        1107.3787633960592        50.495505460905292        0.0000000000000000        1193.2226559999999     
  -1.9600000000000000       0.43999999999999995        1080.3692723200647        50.283557810985585        0.0000000000000000        1165.8498559999998     
  -1.9600000000000000       0.47999999999999998        1053.8541098535634        49.977455631658216        0.0000000000000000        1138.7970559999999     
  -1.9600000000000000       0.52000000000000002        1027.8333816922959        49.578407280428287        0.0000000000000000        1112.0642559999999     
  -1.9600000000000000       0.56000000000000005        1002.3069430749156        49.087874943950929        0.0000000000000000        1085.6514559999998     
  -1.9600000000000000       0.60000000000000009        977.27441023982738        48.507587285455543        0.0000000000000000        1059.5586559999997     
  -1.9600000000000000       0.64000000000000012        952.73517186939625        47.839551419823245        0.0000000000000000        1033.7858559999997     
  -1.9600000000000000       0.68000000000000016        928.68840051832285        47.086076162099886        0.0000000000000000        1008.3330559999997     
  -1.9600000000000000       0.72000000000000020        905.13306403404476        46.249798628247689        0.0000000000000000        983.20025599999974     
  -1.9600000000000000       0.75999999999999979        882.06793697224839        45.333727429819461        0.0000000000000000        958.38745599999993     
  -1.9600000000000000       0.79999999999999982        859.49161199357968        44.341295017374009        0.0000000000000000        933.89465599999994     
  -1.9600000000000000       0.83999999999999986        837.40251125616396        43.276430834288178        0.0000000000000000        909.72185600000000     
  -1.9600000000000000       0.87999999999999989        815.79889780032590        42.143660918315334        0.0000000000000000        885.86905599999989     
  -1.9600000000000000       0.91999999999999993        794.67888692050383        40.948236519819176        0.0000000000000000        862.33625599999982     
  -1.9600000000000000       0.95999999999999996        774.04045753495211        39.696305529820421        0.0000000000000000        839.12345599999992     
  -1.9600000000000000        1.0000000000000000        753.88146354129913        38.395139262109552        0.0000000000000000        816.23065599999995     
  -1.9600000000000000        1.0400000000000000        734.19964516995151        37.053426409781267        0.0000000000000000        793.65785599999981     
  -1.9600000000000000        1.0800000000000001        714.99264033115378        35.681659668247619        0.0000000000000000        771.40505599999983     
  -1.9600000000000000        1.1200000000000001        696.25799599196671        34.292624284583674        0.0000000000000000        749.47225599999990     
  -1.9600000000000000        1.1600000000000001        677.99317965051068        32.902030160983550        0.0000000000000000        727.85945599999980     
  -1.9600000000000000        1.2000000000000002        660.19558923382920        31.529293710585090        0.0000000000000000        706.56665599999974     
  -1.9600000000000000        1.2400000000000002        642.86256152781334        30.198442223695274        0.0000000000000000        685.59385599999973     
  -1.9600000000000000        1.2799999999999998        625.99138048273653        28.939065692792063        0.0000000000000000        664.94105600000000     
  -1.9600000000000000        1.3199999999999998        609.57928551826535        27.787137928952191        0.0000000000000000        644.60825599999998     
  -1.9600000000000000        1.3599999999999999        593.62347982235860        26.785398974794827        0.0000000000000000        624.59545599999990     
  -1.9600000000000000        1.3999999999999999        578.12113864452022        25.982797869021766        0.0000000000000000        604.90265599999998     
  -1.9600000000000000        1.4399999999999999        563.06941758701487        25.432404299368972        0.0000000000000000        585.52985600000000     
  -1.9600000000000000        1.4800000000000000        548.46546060108722        25.187359124107662        0.0000000000000000        566.47705599999995     
  -1.9600000000000000        1.5200000000000000        534.30640484800006        25.295166668137970        0.0000000000000000        547.74425599999995     