variables = "x" "y" "f" "rmse" "EI" "Exact"
 zone i=         101  j=         101  datapacking=point
  -2.0000000000000000       -2.0000000000000000        7.8334240357264253        2079918.6565284969        829766.07517371362        13.000000000000000     
  -2.0000000000000000       -1.9600000000000000        7.8334238718136522        2079918.6174097401        829766.05956766952        12.841600000000000     
  -2.0000000000000000       -1.9199999999999999        7.8334237228020402        2079918.5781702250        829766.04391344241        12.686399999999999     
  -2.0000000000000000       -1.8799999999999999        7.8334235439881059        2079918.5388246302        829766.02821691055        12.534400000000000     
  -2.0000000000000000       -1.8400000000000001        7.8334234098776552        2079918.4993882785        829766.01248414943        12.385600000000000     
  -2.0000000000000000       -1.8000000000000000        7.8334232310637208        2079918.4598767452        829765.99672141776        12.240000000000000     
  -2.0000000000000000       -1.7600000000000000        7.8334230671509477        2079918.4203057508        829765.98093495693        12.097600000000000     
  -2.0000000000000000       -1.7200000000000000        7.8334229479416582        2079918.3806915237        829765.96513122634        11.958399999999999     
  -2.0000000000000000       -1.6799999999999999        7.8334227542265626        2079918.3410509552        829765.94931702444        11.822400000000000     
  -2.0000000000000000       -1.6400000000000001        7.8334225903137895        2079918.3014000484        829765.93349868327        11.689600000000000     
  -2.0000000000000000       -1.6000000000000001        7.8334224264010164        2079918.2617569596        829765.91768346098        11.560000000000000     
  -2.0000000000000000       -1.5600000000000001        7.8334222773894044        2079918.2221384672        829765.90187804378        11.433600000000000     
  -2.0000000000000000       -1.5200000000000000        7.8334220985754701        2079918.1825627862        829765.88608972076        11.310400000000000     
  -2.0000000000000000       -1.4800000000000000        7.8334219644650194        2079918.1430477481        829765.87032556836        11.190400000000000     
  -2.0000000000000000       -1.4399999999999999        7.8334217707499239        2079918.1036116928        829765.85459295544        11.073599999999999     
  -2.0000000000000000       -1.3999999999999999        7.8334216068371507        2079918.0642733704        829765.83889931731        10.960000000000001     
  -2.0000000000000000       -1.3599999999999999        7.8334214876278612        2079918.0250517533        829765.82325221552        10.849599999999999     
  -2.0000000000000000       -1.3199999999999998        7.8334213237150880        2079917.9859652524        829765.80765903974        10.742400000000000     
  -2.0000000000000000       -1.2800000000000000        7.8334211449011537        2079917.9470341888        829765.79212788178        10.638400000000001     
  -2.0000000000000000       -1.2400000000000000        7.8334209809883806        2079917.9082776783        829765.77666635311        10.537600000000001     
  -2.0000000000000000       -1.2000000000000000        7.8334208021744463        2079917.8697158108        829765.76128248312        10.440000000000000     
  -2.0000000000000000       -1.1600000000000001        7.8334206680639955        2079917.8313686191        829765.74598423415        10.345600000000001     
  -2.0000000000000000       -1.1200000000000001        7.8334205488547060        2079917.7932562828        829765.73077967134        10.254400000000000     
  -2.0000000000000000       -1.0800000000000001        7.8334203253372880        2079917.7553995871        829765.71567714657        10.166399999999999     
  -2.0000000000000000       -1.0400000000000000        7.8334202508314821        2079917.7178188274        829765.70068462985        10.081600000000000     
  -2.0000000000000000       -1.0000000000000000        7.8334200273140642        2079917.6805351798        829765.68581071822        10.000000000000000     
  -2.0000000000000000      -0.95999999999999996        7.8334199528082582        2079917.6435693819        829765.67106353585        9.9215999999999998     
  -2.0000000000000000      -0.91999999999999993        7.8334197888954851        2079917.6069428925        829765.65645176254        9.8463999999999992     
  -2.0000000000000000      -0.87999999999999989        7.8334196249827119        2079917.5706770639        829765.64198387216        9.7744000000000000     
  -2.0000000000000000      -0.84000000000000008        7.8334195057734224        2079917.5347927960        829765.62766818004        9.7056000000000004     
  -2.0000000000000000      -0.80000000000000004        7.8334193269594881        2079917.4993119007        829765.61351344024        9.6400000000000006     
  -2.0000000000000000      -0.76000000000000001        7.8334192077501985        2079917.4642559621        829765.59952820372        9.5776000000000003     
  -2.0000000000000000      -0.71999999999999997        7.8334190289362642        2079917.4296466331        829765.58572116855        9.5183999999999997     
  -2.0000000000000000      -0.67999999999999994        7.8334189097269746        2079917.3955054835        829765.57210087997        9.4623999999999988     
  -2.0000000000000000      -0.63999999999999990        7.8334188203200075        2079917.3618543432        829765.55867606204        9.4096000000000011     
  -2.0000000000000000      -0.60000000000000009        7.8334186415060731        2079917.3287149253        829765.54545543657        9.3599999999999994     
  -2.0000000000000000      -0.56000000000000005        7.8334184328898164        2079917.2961100535        829765.53244807897        9.3136000000000010     
  -2.0000000000000000      -0.52000000000000002        7.8334183136805269        2079917.2640585992        829765.51966145833        9.2704000000000004     
  -2.0000000000000000      -0.47999999999999998        7.8334182242735597        2079917.2325850800        829765.50710538542        9.2303999999999995     
  -2.0000000000000000      -0.43999999999999995        7.8334181348665926        2079917.2017109147        829765.49478842027        9.1936000000000000     
  -2.0000000000000000      -0.39999999999999991        7.8334179858549806        2079917.1714550448        829765.48271814897        9.1600000000000001     
  -2.0000000000000000      -0.36000000000000010        7.8334178964480135        2079917.1418419355        829765.47090427240        9.1295999999999999     
  -2.0000000000000000      -0.32000000000000006        7.8334177772387239        2079917.1128907497        829765.45935447991        9.1023999999999994     
  -2.0000000000000000      -0.28000000000000003        7.8334176580294343        2079917.0846232218        829765.44807742746        9.0784000000000002     
  -2.0000000000000000      -0.23999999999999999        7.8334175686224672        2079917.0570609211        829765.43708170508        9.0576000000000008     
  -2.0000000000000000      -0.19999999999999996        7.8334174196108552        2079917.0302236998        829765.42637527734        9.0399999999999991     
  -2.0000000000000000      -0.15999999999999992        7.8334173302038881        2079917.0041332003        829765.41596671857        9.0256000000000007     
  -2.0000000000000000      -0.12000000000000011        7.8334172109945985        2079916.9788075918        829765.40586332220        9.0144000000000002     
  -2.0000000000000000       -8.0000000000000071E-002   7.8334170619829866        2079916.9542690008        829765.39607391530        9.0063999999999993     
  -2.0000000000000000       -4.0000000000000036E-002   7.8334169725760194        2079916.9305357109        829765.38660574716        9.0015999999999998     
  -2.0000000000000000        0.0000000000000000        7.8334169129713747        2079916.9076276503        829765.37746678304        9.0000000000000000     
  -2.0000000000000000        4.0000000000000036E-002   7.8334168831690523        2079916.8855633303        829765.36866440787        9.0015999999999998     
  -2.0000000000000000        8.0000000000000071E-002   7.8334168235644075        2079916.8643601628        829765.36020559759        9.0063999999999993     
  -2.0000000000000000       0.12000000000000011        7.8334166745527956        2079916.8440392870        829765.35209881561        9.0144000000000002     
  -2.0000000000000000       0.16000000000000014        7.8334165851458284        2079916.8246153092        829765.34434981435        9.0256000000000007     
  -2.0000000000000000       0.20000000000000018        7.8334164659365388        2079916.8061069620        829765.33696611167        9.0399999999999991     
  -2.0000000000000000       0.24000000000000021        7.8334164361342165        2079916.7885282990        829765.32995325467        9.0576000000000008     
  -2.0000000000000000       0.27999999999999980        7.8334164063318941        2079916.7718988038        829765.32331906084        9.0784000000000002     
  -2.0000000000000000       0.31999999999999984        7.8334162871226045        2079916.7562321143        829765.31706901558        9.1023999999999994     
  -2.0000000000000000       0.35999999999999988        7.8334162573202821        2079916.7415409603        829765.31120810797        9.1295999999999999     
  -2.0000000000000000       0.39999999999999991        7.8334161977156374        2079916.7278432336        829765.30574353551        9.1600000000000001     
  -2.0000000000000000       0.43999999999999995        7.8334161679133150        2079916.7151504960        829765.30067988078        9.1936000000000000     
  -2.0000000000000000       0.47999999999999998        7.8334161083086702        2079916.7034734448        829765.29602144111        9.2303999999999995     
  -2.0000000000000000       0.52000000000000002        7.8334160487040254        2079916.6928261383        829765.29177381017        9.2704000000000004     
  -2.0000000000000000       0.56000000000000005        7.8334160487040254        2079916.6832182517        829765.28794081800        9.3136000000000010     
  -2.0000000000000000       0.60000000000000009        7.8334159592970583        2079916.6746600682        829765.28452664148        9.3599999999999994     
  -2.0000000000000000       0.64000000000000012        7.8334159592970583        2079916.6671611797        829765.28153501777        9.4096000000000011     
  -2.0000000000000000       0.68000000000000016        7.8334159592970583        2079916.6607284544        829765.27896873164        9.4624000000000006     
  -2.0000000000000000       0.72000000000000020        7.8334158996924135        2079916.6553701235        829765.27683109674        9.5183999999999997     
  -2.0000000000000000       0.75999999999999979        7.8334158996924135        2079916.6510910424        829765.27512399037        9.5776000000000003     
  -2.0000000000000000       0.79999999999999982        7.8334158400877687        2079916.6478975010        829765.27384998149        9.6400000000000006     
  -2.0000000000000000       0.83999999999999986        7.8334158698900911        2079916.6457915951        829765.27300983167        9.7056000000000004     
  -2.0000000000000000       0.87999999999999989        7.8334158996924135        2079916.6447767597        829765.27260495594        9.7744000000000000     
  -2.0000000000000000       0.91999999999999993        7.8334158996924135        2079916.6448537307        829765.27263566293        9.8463999999999992     
  -2.0000000000000000       0.95999999999999996        7.8334158996924135        2079916.6460242507        829765.27310263284        9.9215999999999998     
  -2.0000000000000000        1.0000000000000000        7.8334159294947359        2079916.6482838893        829765.27400408336        10.000000000000000     
  -2.0000000000000000        1.0400000000000000        7.8334158996924135        2079916.6516316710        829765.27533966990        10.081600000000000     
  -2.0000000000000000        1.0800000000000001        7.8334159294947359        2079916.6560636566        829765.27710776147        10.166399999999999     
  -2.0000000000000000        1.1200000000000001        7.8334159294947359        2079916.6615744322        829765.27930624282        10.254400000000000     
  -2.0000000000000000        1.1600000000000001        7.8334159592970583        2079916.6681582711        829765.28193279973        10.345600000000001     
  -2.0000000000000000        1.2000000000000002        7.8334159592970583        2079916.6758083052        829765.28498472169        10.440000000000001     
  -2.0000000000000000        1.2400000000000002        7.8334159890993806        2079916.6845159349        829765.28845854849        10.537600000000001     
  -2.0000000000000000        1.2799999999999998        7.8334160785063478        2079916.6942715943        829765.29235044878        10.638399999999999     
  -2.0000000000000000        1.3199999999999998        7.8334160785063478        2079916.7050655833        829765.29665662744        10.742400000000000     
  -2.0000000000000000        1.3599999999999999        7.8334161679133150        2079916.7168867663        829765.30137255229        10.849599999999999     
  -2.0000000000000000        1.3999999999999999        7.8334162573202821        2079916.7297235602        829765.30649364751        10.960000000000001     
  -2.0000000000000000        1.4399999999999999        7.8334162871226045        2079916.7435626439        829765.31201462820        11.073599999999999     
  -2.0000000000000000        1.4800000000000000        7.8334163467272493        2079916.7583928250        829765.31793098466        11.190400000000000     
  -2.0000000000000000        1.5200000000000000        7.8334164063318941        2079916.7741972804        829765.32423602033        11.310400000000000     
  -2.0000000000000000        1.5600000000000001        7.8334164063318941        2079916.7909622504        829765.33092427568        11.433600000000000     
  -2.0000000000000000        1.6000000000000001        7.8334165553435060        2079916.8086727026        829765.33798964939        11.560000000000000     
  -2.0000000000000000        1.6400000000000001        7.8334165851458284        2079916.8273119978        829765.34542563744        11.689600000000000     
  -2.0000000000000000        1.6800000000000002        7.8334166149481508        2079916.8468638505        829765.35322568321        11.822400000000000     
  -2.0000000000000000        1.7200000000000002        7.8334167639597627        2079916.8673121925        829765.36138331692        11.958400000000001     
  -2.0000000000000000        1.7599999999999998        7.8334168235644075        2079916.8886369660        829765.36989064084        12.097600000000000     
  -2.0000000000000000        1.7999999999999998        7.8334169725760194        2079916.9108224171        829765.37874128087        12.239999999999998     
  -2.0000000000000000        1.8399999999999999        7.8334170619829866        2079916.9338481331        829765.38792716770        12.385600000000000     
  -2.0000000000000000        1.8799999999999999        7.8334170917853090        2079916.9576966725        829765.39744134352        12.534400000000000     
  -2.0000000000000000        1.9199999999999999        7.8334172705992433        2079916.9823484926        829765.40727590746        12.686399999999999     
  -2.0000000000000000        1.9600000000000000        7.8334173302038881        2079917.0077835659        829765.41742300382        12.841600000000000     
  -2.0000000000000000        2.0000000000000000        7.8334174494131776        2079917.0339811239        829765.42787425779        13.000000000000000     
  -1.9600000000000000       -2.0000000000000000        7.8325626294001314        2079706.0041412606        829681.23957611970        12.841600000000000     
  -1.9600000000000000       -1.9600000000000000        7.8325502316340181        2079702.3100911151        829679.76586952957        12.683199999999999     
  -1.9600000000000000       -1.9199999999999999        7.8325349728449556        2079698.6043092874        829678.28748410579        12.527999999999999     
  -1.9600000000000000       -1.8799999999999999        7.8325178067072603        2079694.8876684038        829676.80476749933        12.375999999999999     
  -1.9600000000000000       -1.8400000000000001        7.8325044552668306        2079691.1622611820        829675.31855172256        12.227200000000000     
  -1.9600000000000000       -1.8000000000000000        7.8324872891291353        2079687.4279093619        829673.82876947476        12.081600000000000     
  -1.9600000000000000       -1.7600000000000000        7.8324739376887056        2079683.6887086122        829672.33705087646        11.939200000000000     
  -1.9600000000000000       -1.7200000000000000        7.8324567715510103        2079679.9442521029        829670.84323744092        11.799999999999999     
  -1.9600000000000000       -1.6799999999999999        7.8324453274592134        2079676.1957764018        829669.34781771875        11.664000000000000     
  -1.9600000000000000       -1.6400000000000001        7.8324319760187837        2079672.4474678624        829667.85246563808        11.531200000000000     
  -1.9600000000000000       -1.6000000000000001        7.8324129025324556        2079668.6977388344        829666.35654972540        11.401600000000000     
  -1.9600000000000000       -1.5600000000000001        7.8323976437433931        2079664.9536102256        829664.86286614952        11.275200000000000     
  -1.9600000000000000       -1.5200000000000000        7.8323842923029634        2079661.2067953758        829663.36810996477        11.151999999999999     
  -1.9600000000000000       -1.4800000000000000        7.8323690335139009        2079657.4693133181        829661.87707797915        11.032000000000000     
  -1.9600000000000000       -1.4399999999999999        7.8323537747248384        2079653.7373912348        829660.38826410228        10.915199999999999     
  -1.9600000000000000       -1.3999999999999999        7.8323404232844087        2079650.0136886458        829658.90272837563        10.801600000000001     
  -1.9600000000000000       -1.3599999999999999        7.8323232571467134        2079646.2986724465        829657.42065992451        10.691199999999998     
  -1.9600000000000000       -1.3199999999999998        7.8323118130549165        2079642.5993404605        829655.94484570809        10.584000000000000     
  -1.9600000000000000       -1.2800000000000000        7.8322946469172212        2079638.9093351171        829654.47275514482        10.480000000000000     
  -1.9600000000000000       -1.2400000000000000        7.8322812954767915        2079635.2390976418        829653.00854891236        10.379200000000001     
  -1.9600000000000000       -1.2000000000000000        7.8322660366877290        2079631.5906550847        829651.55303854821        10.281599999999999     
  -1.9600000000000000       -1.1600000000000001        7.8322545925959322        2079627.9525620730        829650.10165514785        10.187200000000001     
  -1.9600000000000000       -1.1200000000000001        7.8322336117609712        2079624.3424965597        829648.66145786992        10.096000000000000     
  -1.9600000000000000       -1.0800000000000001        7.8322221676691743        2079620.7551899047        829647.23033529462        10.007999999999999     
  -1.9600000000000000       -1.0400000000000000        7.8322050015314790        2079617.1950771788        829645.81006438832        9.9231999999999996     
  -1.9600000000000000       -1.0000000000000000        7.8321935574396822        2079613.6551197993        829644.39783144079        9.8415999999999997     
  -1.9600000000000000      -0.95999999999999996        7.8321802059992525        2079610.1531934545        829643.00077163475        9.7631999999999994     
  -1.9600000000000000      -0.91999999999999993        7.8321668545588228        2079606.6804629799        829641.61535929574        9.6879999999999988     
  -1.9600000000000000      -0.87999999999999989        7.8321496884211275        2079603.2354901673        829640.24102256889        9.6159999999999997     
  -1.9600000000000000      -0.84000000000000008        7.8321382443293306        2079599.8333781816        829638.88378197711        9.5472000000000001     
  -1.9600000000000000      -0.80000000000000004        7.8321268002375337        2079596.4679736495        829637.54118554073        9.4816000000000003     
  -1.9600000000000000      -0.76000000000000001        7.8321096340998384        2079593.1401315411        829636.21357720427        9.4192000000000000     
  -1.9600000000000000      -0.71999999999999997        7.8320981900080415        2079589.8534023003        829634.90236766788        9.3599999999999994     
  -1.9600000000000000      -0.67999999999999994        7.8320867459162447        2079586.6125870720        829633.60947517236        9.3039999999999985     
  -1.9600000000000000      -0.63999999999999990        7.8320714871271822        2079583.4206050260        829632.33606620540        9.2512000000000008     
  -1.9600000000000000      -0.60000000000000009        7.8320543209894868        2079580.2735738368        829631.08059098932        9.2015999999999991     
  -1.9600000000000000      -0.56000000000000005        7.8320505062922212        2079577.1734724834        829629.84383139329        9.1552000000000007     
  -1.9600000000000000      -0.52000000000000002        7.8320371548517915        2079574.1296425918        829628.62952563085        9.1120000000000001     
  -1.9600000000000000      -0.47999999999999998        7.8320218960627290        2079571.1409516693        829627.43721808819        9.0719999999999992     
  -1.9600000000000000      -0.43999999999999995        7.8320066372736665        2079568.2069791930        829626.26674004726        9.0351999999999997     
  -1.9600000000000000      -0.39999999999999991        7.8320009152277681        2079565.3309884563        829625.11938860535        9.0015999999999998     
  -1.9600000000000000      -0.36000000000000010        7.8319894711359712        2079562.5183864296        829623.99732846103        8.9711999999999996     
  -1.9600000000000000      -0.32000000000000006        7.8319837490900728        2079559.7661549207        829622.89934980765        8.9439999999999991     
  -1.9600000000000000      -0.28000000000000003        7.8319665829523775        2079557.0771120372        829621.82658549072        8.9199999999999999     
  -1.9600000000000000      -0.23999999999999999        7.8319589535578462        2079554.4588374917        829620.78204888746        8.8992000000000004     
  -1.9600000000000000      -0.19999999999999996        7.8319456021174165        2079551.9073032795        829619.76414068602        8.8815999999999988     
  -1.9600000000000000      -0.15999999999999992        7.8319398800715181        2079549.4283632890        829618.77518957434        8.8672000000000004     
  -1.9600000000000000      -0.12000000000000011        7.8319246212824556        2079547.0200174178        829617.81440620986        8.8559999999999999     
  -1.9600000000000000       -8.0000000000000071E-002   7.8319208065851900        2079544.6832414013        829616.88216936437        8.8479999999999990     
  -1.9600000000000000       -4.0000000000000036E-002   7.8319036404474947        2079542.4278832146        829615.98242020933        8.8431999999999995     
  -1.9600000000000000        0.0000000000000000        7.8318998257502290        2079540.2437571210        829615.11108187214        8.8415999999999997     
  -1.9600000000000000        4.0000000000000036E-002   7.8318883816584322        2079538.1460807340        829614.27423579281        8.8431999999999995     
  -1.9600000000000000        8.0000000000000071E-002   7.8318807522639009        2079536.1308273540        829613.47026982845        8.8479999999999990     
  -1.9600000000000000       0.12000000000000011        7.8318769375666353        2079534.1951695061        829612.69805597991        8.8559999999999999     
  -1.9600000000000000       0.16000000000000014        7.8318674008234712        2079532.3448462985        829611.95988858829        8.8672000000000004     
  -1.9600000000000000       0.20000000000000018        7.8318616787775728        2079530.5837882580        829611.25733093882        8.8815999999999988     
  -1.9600000000000000       0.24000000000000021        7.8318578640803072        2079528.9149895401        829610.59157848009        8.8992000000000004     
  -1.9600000000000000       0.27999999999999980        7.8318502346857759        2079527.3284247557        829609.95863452170        8.9199999999999999     
  -1.9600000000000000       0.31999999999999984        7.8318406979426118        2079525.8357062223        829609.36313075433        8.9439999999999991     
  -1.9600000000000000       0.35999999999999988        7.8318349758967134        2079524.4382633700        829608.80563457706        8.9711999999999996     
  -1.9600000000000000       0.39999999999999991        7.8318292538508150        2079523.1351137669        829608.28575596376        9.0015999999999998     
  -1.9600000000000000       0.43999999999999995        7.8318254391535493        2079521.9261141138        829607.80343679246        9.0351999999999997     
  -1.9600000000000000       0.47999999999999998        7.8318178097590181        2079520.8166880410        829607.36084363994        9.0719999999999992     
  -1.9600000000000000       0.52000000000000002        7.8318178097590181        2079519.8051396371        829606.95729421289        9.1120000000000001     
  -1.9600000000000000       0.56000000000000005        7.8318159024103853        2079518.8906094367        829606.59245040291        9.1552000000000007     
  -1.9600000000000000       0.60000000000000009        7.8318178097590181        2079518.0726123350        829606.26611582004        9.2015999999999991     
  -1.9600000000000000       0.64000000000000012        7.8318120877131197        2079517.3548450358        829605.97977095807        9.2512000000000008     
  -1.9600000000000000       0.68000000000000016        7.8318101803644868        2079516.7428373569        829605.73561617266        9.3040000000000003     
  -1.9600000000000000       0.72000000000000020        7.8318082730158540        2079516.2329898707        829605.53221740760        9.3599999999999994     
  -1.9600000000000000       0.75999999999999979        7.8318082730158540        2079515.8230090200        829605.36865871202        9.4192000000000000     
  -1.9600000000000000       0.79999999999999982        7.8318044583185884        2079515.5243331513        829605.24950618728        9.4816000000000003     
  -1.9600000000000000       0.83999999999999986        7.8317987362726900        2079515.3234745471        829605.16937805864        9.5472000000000001     
  -1.9600000000000000       0.87999999999999989        7.8318025509699556        2079515.2216169210        829605.12874083768        9.6159999999999997     
  -1.9600000000000000       0.91999999999999993        7.8317968289240572        2079515.2322554137        829605.13298784324        9.6879999999999988     
  -1.9600000000000000       0.95999999999999996        7.8317968289240572        2079515.3400922590        829605.17600852018        9.7631999999999994     
  -1.9600000000000000        1.0000000000000000        7.8318006436213228        2079515.5617126960        829605.26442037534        9.8415999999999997     
  -1.9600000000000000        1.0400000000000000        7.8318044583185884        2079515.8758524056        829605.38974208012        9.9231999999999996     
  -1.9600000000000000        1.0800000000000001        7.8317968289240572        2079516.2998056835        829605.55887878232        10.007999999999999     
  -1.9600000000000000        1.1200000000000001        7.8318044583185884        2079516.8240288498        829605.76800975308        10.096000000000000     
  -1.9600000000000000        1.1600000000000001        7.8318044583185884        2079517.4503234311        829606.01786514150        10.187200000000001     
  -1.9600000000000000        1.2000000000000002        7.8318139950617525        2079518.1794274754        829606.30873080320        10.281600000000001     
  -1.9600000000000000        1.2400000000000002        7.8318139950617525        2079519.0096034682        829606.63992310688        10.379200000000001     
  -1.9600000000000000        1.2799999999999998        7.8318178097590181        2079519.9380831930        829607.01033101825        10.479999999999999     
  -1.9600000000000000        1.3199999999999998        7.8318292538508150        2079520.9648552486        829607.41994808137        10.584000000000000     
  -1.9600000000000000        1.3599999999999999        7.8318254391535493        2079522.0888758439        829607.86836932832        10.691199999999998     
  -1.9600000000000000        1.3999999999999999        7.8318292538508150        2079523.3151105209        829608.35756427934        10.801600000000001     
  -1.9600000000000000        1.4399999999999999        7.8318368832453462        2079524.6296953254        829608.88200392423        10.915199999999999     
  -1.9600000000000000        1.4800000000000000        7.8318445126398775        2079526.0449148125        829609.44659099902        11.032000000000000     
  -1.9600000000000000        1.5200000000000000        7.8318540493830415        2079527.5510091176        829610.04743092728        11.151999999999999     