variables = "x" "y" "f" "rmse" "EI" "Exact"
 zone i=         101  j=         101  datapacking=point
  -2.0000000000000000       -2.0000000000000000        3544.0131757940417        40.636009865572241        0.0000000000000000        3609.0000000000000     
  -2.0000000000000000       -1.9600000000000000        3506.2181741100867        34.158460149157754        0.0000000000000000        3561.1599999999999     
  -2.0000000000000000       -1.9199999999999999        3467.9877073477810        28.070932280488723        0.0000000000000000        3513.6399999999999     
  -2.0000000000000000       -1.8799999999999999        3429.3404896939401        22.441044216059005        0.0000000000000000        3466.4399999999996     
  -2.0000000000000000       -1.8400000000000001        3390.2959893941388        17.401305659153891        0.0000000000000000        3419.5599999999995     
  -2.0000000000000000       -1.8000000000000000        3350.8744405297948        13.233030160299045        0.0000000000000000        3373.0000000000000     
  -2.0000000000000000       -1.7600000000000000        3311.0968514240344        10.510189882003052        0.0000000000000000        3326.7599999999998     
  -2.0000000000000000       -1.7200000000000000        3270.9850121913660        9.9625389224955327        0.0000000000000000        3280.8399999999997     
  -2.0000000000000000       -1.6799999999999999        3230.5615021420435        11.504626394661328        0.0000000000000000        3235.2399999999998     
  -2.0000000000000000       -1.6400000000000001        3189.8496839922736        14.183670471127778        0.0000000000000000        3189.9600000000005     
  -2.0000000000000000       -1.6000000000000001        3148.8736491493601        17.253419864423311        0.0000000000000000        3144.9999999999995     
  -2.0000000000000000       -1.5600000000000001        3107.6581354768905        20.358138893385910        0.0000000000000000        3100.3600000000006     
  -2.0000000000000000       -1.5200000000000000        3066.2284433610703        23.339651288289772        0.0000000000000000        3056.0399999999995     
  -2.0000000000000000       -1.4800000000000000        3024.6103518918144        26.124086276357321        0.0000000000000000        3012.0400000000004     
  -2.0000000000000000       -1.4399999999999999        2982.8300351470116        28.675419406756941        0.0000000000000000        2968.3599999999997     
  -2.0000000000000000       -1.3999999999999999        2940.9139785687726        30.976382831072613        0.0000000000000000        2925.0000000000005     
  -2.0000000000000000       -1.3599999999999999        2898.8888954204403        33.020053706751241        0.0000000000000000        2881.9599999999996     
  -2.0000000000000000       -1.3199999999999998        2856.7816433144885        34.805863139473949        0.0000000000000000        2839.2400000000002     
  -2.0000000000000000       -1.2800000000000000        2814.6191416935262        36.337581384570974        0.0000000000000000        2796.8400000000001     
  -2.0000000000000000       -1.2400000000000000        2772.4282969332271        37.622248850880425        0.0000000000000000        2754.7600000000002     
  -2.0000000000000000       -1.2000000000000000        2730.2359362019242        38.669590388751956        0.0000000000000000        2713.0000000000005     
  -2.0000000000000000       -1.1600000000000001        2688.0687428028568        39.491697238352501        0.0000000000000000        2671.5600000000004     
  -2.0000000000000000       -1.1200000000000001        2645.9531915445405        40.102862798264496        0.0000000000000000        2630.4400000000001     
  -2.0000000000000000       -1.0800000000000001        2603.9154841193777        40.519508286861203        0.0000000000000000        2589.6399999999999     
  -2.0000000000000000       -1.0400000000000000        2561.9814844823768        40.760158999313553        0.0000000000000000        2549.1600000000003     
  -2.0000000000000000       -1.0000000000000000        2520.1766542201071        40.845442551653136        0.0000000000000000        2509.0000000000000     
  -2.0000000000000000      -0.95999999999999996        2478.5259879011574        40.798083878985224        0.0000000000000000        2469.1600000000003     
  -2.0000000000000000      -0.91999999999999993        2437.0539483994689        40.642869944145794        0.0000000000000000        2429.6399999999999     
  -2.0000000000000000      -0.87999999999999989        2395.7844021802739        40.406552674554312        0.0000000000000000        2390.4400000000001     
  -2.0000000000000000      -0.84000000000000008        2354.7405545411439        40.117652312233524        0.0000000000000000        2351.5599999999999     
  -2.0000000000000000      -0.80000000000000004        2313.9448847977592        39.806118267173943        0.0000000000000000        2313.0000000000000     
  -2.0000000000000000      -0.76000000000000001        2273.4190814061390        39.502803417690004        0.0000000000000000        2274.7599999999998     
  -2.0000000000000000      -0.71999999999999997        2233.1839770103888        39.238715519079477        0.0000000000000000        2236.8399999999997     
  -2.0000000000000000      -0.67999999999999994        2193.2594831355782        39.044032292498372        0.0000000000000000        2199.2399999999998     
  -2.0000000000000000      -0.63999999999999990        2153.6645230215909        38.946909150324537        0.0000000000000000        2161.9600000000000     
  -2.0000000000000000      -0.60000000000000009        2114.4169627175343        38.972154787616894        0.0000000000000000        2124.9999999999995     
  -2.0000000000000000      -0.56000000000000005        2075.5335418560871        39.139900813426657        0.0000000000000000        2088.3600000000006     
  -2.0000000000000000      -0.52000000000000002        2037.0298043077737        39.464436269124903        0.0000000000000000        2052.0399999999995     
  -2.0000000000000000      -0.47999999999999998        1998.9200287066060        39.953383442071626        0.0000000000000000        2016.0400000000002     
  -2.0000000000000000      -0.43999999999999995        1961.2171588369540        40.607348260452781        0.0000000000000000        1980.3599999999997     
  -2.0000000000000000      -0.39999999999999991        1923.9327338729256        41.420095596981632        0.0000000000000000        1945.0000000000002     
  -2.0000000000000000      -0.36000000000000010        1887.0768185158745        42.379202269677059        0.0000000000000000        1909.9600000000003     
  -2.0000000000000000      -0.32000000000000006        1850.6579431358473        43.467087706204438        0.0000000000000000        1875.2400000000002     
  -2.0000000000000000      -0.28000000000000003        1814.6831097323866        44.662388978518209        0.0000000000000000        1840.8400000000001     
  -2.0000000000000000      -0.23999999999999999        1779.1578590268509        45.941460307494246        0.0000000000000000        1806.7600000000002     
  -2.0000000000000000      -0.19999999999999996        1744.0863452717713        47.279706014719224        0.0000000000000000        1773.0000000000000     
  -2.0000000000000000      -0.15999999999999992        1709.4714109256506        48.652658593558854        0.0000000000000000        1739.5600000000002     
  -2.0000000000000000      -0.12000000000000011        1675.3146611778134        50.036791735293050        0.0000000000000000        1706.4399999999998     
  -2.0000000000000000       -8.0000000000000071E-002   1641.6165383306784        51.410093506676432        0.0000000000000000        1673.6399999999999     
  -2.0000000000000000       -4.0000000000000036E-002   1608.3763960491729        52.752442427552538        0.0000000000000000        1641.1600000000001     
  -2.0000000000000000        0.0000000000000000        1575.5925734851603        54.045832238150993        0.0000000000000000        1609.0000000000000     
  -2.0000000000000000        4.0000000000000036E-002   1543.2624692854881        55.274487108972025        0.0000000000000000        1577.1599999999999     
  -2.0000000000000000        8.0000000000000071E-002   1511.3826154928415        56.424901013918408        0.0000000000000000        1545.6399999999999     
  -2.0000000000000000       0.12000000000000011        1479.9487513470715        57.485826822016186        0.0000000000000000        1514.4399999999998     
  -2.0000000000000000       0.16000000000000014        1448.9558969964087        58.448233060300439        0.0000000000000000        1483.5599999999999     
  -2.0000000000000000       0.20000000000000018        1418.3984271265317        59.305240361840433        0.0000000000000000        1453.0000000000000     
  -2.0000000000000000       0.24000000000000021        1388.2701445165405        60.052044800194807        0.0000000000000000        1422.7600000000000     
  -2.0000000000000000       0.27999999999999980        1358.5643535301026        60.685832078348298        0.0000000000000000        1392.8400000000001     
  -2.0000000000000000       0.31999999999999984        1329.2739335504034        61.205683796409353        0.0000000000000000        1363.2400000000000     
  -2.0000000000000000       0.35999999999999988        1300.3914123678765        61.612475516905143        0.0000000000000000        1333.9600000000000     
  -2.0000000000000000       0.39999999999999991        1271.9090395284704        61.908764880947523        0.0000000000000000        1305.0000000000000     
  -2.0000000000000000       0.43999999999999995        1243.8188596521863        62.098667144297750        0.0000000000000000        1276.3600000000001     
  -2.0000000000000000       0.47999999999999998        1216.1127857292488        62.187715056273007        0.0000000000000000        1248.0400000000000     
  -2.0000000000000000       0.52000000000000002        1188.7826724037905        62.182699380485097        0.0000000000000000        1220.0400000000000     
  -2.0000000000000000       0.56000000000000005        1161.8203892522101        62.091486503022530        0.0000000000000000        1192.3599999999999     
  -2.0000000000000000       0.60000000000000009        1135.2178940664071        61.922809715947935        0.0000000000000000        1164.9999999999998     
  -2.0000000000000000       0.64000000000000012        1108.9673061436517        61.686031282905006        0.0000000000000000        1137.9599999999998     
  -2.0000000000000000       0.68000000000000016        1083.0609789601290        61.390873583878744        0.0000000000000000        1111.2400000000000     
  -2.0000000000000000       0.72000000000000020        1057.4915693123664        61.047118466507449        0.0000000000000000        1084.8399999999999     
  -2.0000000000000000       0.75999999999999979        1032.2521035845009        60.664276765573987        0.0000000000000000        1058.7600000000002     
  -2.0000000000000000       0.79999999999999982        1007.3360437421709        60.251233023683447        0.0000000000000000        1033.0000000000002     
  -2.0000000000000000       0.83999999999999986        982.73735337901689        59.815873468990212        0.0000000000000000        1007.5600000000002     
  -2.0000000000000000       0.87999999999999989        958.45056382468738        59.364708608483916        0.0000000000000000        982.44000000000005     
  -2.0000000000000000       0.91999999999999993        934.47084032085559        58.902504950520225        0.0000000000000000        957.63999999999999     
  -2.0000000000000000       0.95999999999999996        910.79404826301766        58.431942779401126        0.0000000000000000        933.15999999999997     
  -2.0000000000000000        1.0000000000000000        887.41681412837534        57.953329337205879        0.0000000000000000        909.00000000000000     
  -2.0000000000000000        1.0400000000000000        864.33653924074588        57.464471365454912        0.0000000000000000        885.15999999999997     
  -2.0000000000000000        1.0800000000000001        841.55135776528368        56.960738671461563        0.0000000000000000        861.63999999999987     
  -2.0000000000000000        1.1200000000000001        819.06008516384190        56.435224898539467        0.0000000000000000        838.43999999999994     
  -2.0000000000000000        1.1600000000000001        796.86216665836344        55.878977567724135        0.0000000000000000        815.55999999999995     
  -2.0000000000000000        1.2000000000000002        774.95762576698519        55.281285093782898        0.0000000000000000        792.99999999999989     
  -2.0000000000000000        1.2400000000000002        753.34701290552550        54.630007227446995        0.0000000000000000        770.75999999999988     
  -2.0000000000000000        1.2799999999999998        732.03135404736986        53.911935231731121        0.0000000000000000        748.84000000000015     
  -2.0000000000000000        1.3199999999999998        711.01209944196000        53.113169989033139        0.0000000000000000        727.24000000000012     
  -2.0000000000000000        1.3599999999999999        690.29107345920340        52.219509592196758        0.0000000000000000        705.96000000000004     
  -2.0000000000000000        1.3999999999999999        669.87043108741284        51.216843767177004        0.0000000000000000        685.00000000000011     
  -2.0000000000000000        1.4399999999999999        649.75262031484988        50.091556356318563        0.0000000000000000        664.36000000000001     
  -2.0000000000000000        1.4800000000000000        629.94034524492042        48.830942895292793        0.0000000000000000        644.04000000000008     
  -2.0000000000000000        1.5200000000000000        610.43652923443824        47.423660416272121        0.0000000000000000        624.04000000000008     
  -2.0000000000000000        1.5600000000000001        591.24427804788911        45.860239194369626        0.0000000000000000        604.36000000000001     
  -2.0000000000000000        1.6000000000000001        572.36684302236483        44.133704108921428        0.0000000000000000        585.00000000000000     
  -2.0000000000000000        1.6400000000000001        553.80758423797442        42.240381498047121        0.0000000000000000        565.95999999999992     
  -2.0000000000000000        1.6800000000000002        535.56993368900908        40.181012600660374        0.0000000000000000        547.24000000000001     
  -2.0000000000000000        1.7200000000000002        517.65735844974347        37.962370456717871        0.0000000000000000        528.83999999999992     
  -2.0000000000000000        1.7599999999999998        500.07332383051119        35.599703120156157        0.0000000000000000        510.76000000000005     
  -2.0000000000000000        1.7999999999999998        482.82125651873048        33.120532972112244        0.0000000000000000        493.00000000000006     
  -2.0000000000000000        1.8399999999999999        465.90450769910956        30.570657496665110        0.0000000000000000        475.56000000000006     
  -2.0000000000000000        1.8799999999999999        449.32631614858462        28.023575114934932        0.0000000000000000        458.44000000000005     
  -2.0000000000000000        1.9199999999999999        433.08977130034066        25.594600836907706        0.0000000000000000        441.64000000000004     
  -2.0000000000000000        1.9600000000000000        417.19777627198005        23.459037252438357        0.0000000000000000        425.15999999999997     
  -2.0000000000000000        2.0000000000000000        401.65301174685487        21.865756973918526        0.0000000000000000        409.00000000000000     
  -1.9600000000000000       -2.0000000000000000        3441.6296074392394        101.56697507008379        0.0000000000000000        3421.1906559999998     
  -1.9600000000000000       -1.9600000000000000        3403.9032193275389        98.278205122310666        0.0000000000000000        3374.6178559999989     
  -1.9600000000000000       -1.9199999999999999        3365.7606282626857        95.435303744157096        0.0000000000000000        3328.3650559999992     
  -1.9600000000000000       -1.8799999999999999        3327.2206949015099        93.019848803797345        0.0000000000000000        3282.4322559999991     
  -1.9600000000000000       -1.8400000000000001        3288.3030274702278        91.007157640158169        0.0000000000000000        3236.8194559999993     
  -1.9600000000000000       -1.8000000000000000        3249.0279930165971        89.366768568067684        0.0000000000000000        3191.5266559999991     
  -1.9600000000000000       -1.7600000000000000        3209.4167247385749        88.063296724804928        0.0000000000000000        3146.5538559999991     
  -1.9600000000000000       -1.7200000000000000        3169.4911282969433        87.057583388159003        0.0000000000000000        3101.9010559999992     
  -1.9600000000000000       -1.6799999999999999        3129.2738879765357        86.308019599808375        0.0000000000000000        3057.5682559999991     
  -1.9600000000000000       -1.6400000000000001        3088.7884597017746        85.771932651199464        0.0000000000000000        3013.5554560000000     
  -1.9600000000000000       -1.6000000000000001        3048.0590153142630        85.406965301993679        0.0000000000000000        2969.8626559999993     
  -1.9600000000000000       -1.5600000000000001        3007.1103594342703        85.172301382705086        0.0000000000000000        2926.4898560000001     
  -1.9600000000000000       -1.5200000000000000        2965.9678446263624        85.029635671554288        0.0000000000000000        2883.4370559999988     
  -1.9600000000000000       -1.4800000000000000        2924.6572866756997        84.943872940825244        0.0000000000000000        2840.7042560000000     
  -1.9600000000000000       -1.4399999999999999        2883.2048799633521        84.883575362668580        0.0000000000000000        2798.2914559999990     
  -1.9600000000000000       -1.3999999999999999        2841.6371129291829        84.821195961608908        0.0000000000000000        2756.1986560000000     
  -1.9600000000000000       -1.3599999999999999        2799.9806836110515        84.733143311634777        0.0000000000000000        2714.4258559999989     
  -1.9600000000000000       -1.3199999999999998        2758.2624152506942        84.599722068238734        0.0000000000000000        2672.9730559999998     
  -1.9600000000000000       -1.2800000000000000        2716.5091729378391        84.404990608882841        0.0000000000000000        2631.8402559999995     
  -1.9600000000000000       -1.2400000000000000        2674.7477886331517        84.136582144401146        0.0000000000000000        2591.0274559999998     
  -1.9600000000000000       -1.2000000000000000        2633.0049958194268        83.785512448656817        0.0000000000000000        2550.5346559999998     
  -1.9600000000000000       -1.1600000000000001        2591.3073657772775        83.345972201887861        0.0000000000000000        2510.3618559999995     
  -1.9600000000000000       -1.1200000000000001        2549.6812438853467        82.815111894042815        0.0000000000000000        2470.5090559999994     
  -1.9600000000000000       -1.0800000000000001        2508.1526859245168        82.192825955601478        0.0000000000000000        2430.9762559999999     
  -1.9600000000000000       -1.0400000000000000        2466.7473943778814        81.481539192118561        0.0000000000000000        2391.7634559999992     
  -1.9600000000000000       -1.0000000000000000        2425.4906547168284        80.685995639984426        0.0000000000000000        2352.8706559999996     
  -1.9600000000000000      -0.95999999999999996        2384.4072716647161        79.813047757860659        0.0000000000000000        2314.2978559999992     
  -1.9600000000000000      -0.91999999999999993        2343.5215054294622        78.871442387762613        0.0000000000000000        2276.0450559999995     
  -1.9600000000000000      -0.87999999999999989        2302.8570078950165        77.871598539868955        0.0000000000000000        2238.1122559999994     
  -1.9600000000000000      -0.84000000000000008        2262.4367587643974        76.825371468775259        0.0000000000000000        2200.4994559999996     
  -1.9600000000000000      -0.80000000000000004        2222.2830016438043        75.745797070438442        0.0000000000000000        2163.2066559999994     
  -1.9600000000000000      -0.76000000000000001        2182.4171800599943        74.646810915861508        0.0000000000000000        2126.2338559999994     
  -1.9600000000000000      -0.71999999999999997        2142.8598733996564        73.542936980464106        0.0000000000000000        2089.5810559999991     
  -1.9600000000000000      -0.67999999999999994        2103.6307324602799        72.448941945859573        0.0000000000000000        2053.2482559999994     
  -1.9600000000000000      -0.63999999999999990        2064.7484129410300        71.379449319115722        0.0000000000000000        2017.2354559999994     
  -1.9600000000000000      -0.60000000000000009        2026.2305070077193        70.348518972674356        0.0000000000000000        1981.5426559999994     
  -1.9600000000000000      -0.56000000000000005        1988.0934745114450        69.369206175358869        0.0000000000000000        1946.1698560000002     
  -1.9600000000000000      -0.52000000000000002        1950.3525740842115        68.453113772339108        0.0000000000000000        1911.1170559999994     
  -1.9600000000000000      -0.47999999999999998        1913.0217941033325        67.609955652706915        0.0000000000000000        1876.3842560000001     
  -1.9600000000000000      -0.43999999999999995        1876.1137835144596        66.847154559539803        0.0000000000000000        1841.9714559999991     
  -1.9600000000000000      -0.39999999999999991        1839.6397825045647        66.169500069872001        0.0000000000000000        1807.8786560000001     
  -1.9600000000000000      -0.36000000000000010        1803.6095530704984        65.578892870835730        0.0000000000000000        1774.1058559999999     
  -1.9600000000000000      -0.32000000000000006        1768.0313195764893        65.074213525864835        0.0000000000000000        1740.6530560000001     
  -1.9600000000000000      -0.28000000000000003        1732.9117750463583        64.651414425656455        0.0000000000000000        1707.5202560000000     
  -1.9600000000000000      -0.23999999999999999        1698.2561485085594        64.303822903828333        0.0000000000000000        1674.7074560000001     
  -1.9600000000000000      -0.19999999999999996        1664.0682800461602        64.022553975374962        0.0000000000000000        1642.2146559999999     
  -1.9600000000000000      -0.15999999999999992        1630.3506957102136        63.796994063420996        0.0000000000000000        1610.0418559999998     
  -1.9600000000000000      -0.12000000000000011        1597.1046822809174        63.615326095012840        0.0000000000000000        1578.1890559999999     
  -1.9600000000000000       -8.0000000000000071E-002   1564.3303618842767        63.465066992240175        0.0000000000000000        1546.6562559999998     
  -1.9600000000000000       -4.0000000000000036E-002   1532.0267664738014        63.333592084600227        0.0000000000000000        1515.4434559999997     
  -1.9600000000000000        0.0000000000000000        1500.1919121852825        63.208626497711620        0.0000000000000000        1484.5506559999999     
  -1.9600000000000000        4.0000000000000036E-002   1468.8228735733319        63.078689891477836        0.0000000000000000        1453.9778559999997     
  -1.9600000000000000        8.0000000000000071E-002   1437.9158577387625        62.933486877625214        0.0000000000000000        1423.7250559999998     
  -1.9600000000000000       0.12000000000000011        1407.4662783547340        62.764240608060582        0.0000000000000000        1393.7922559999997     
  -1.9600000000000000       0.16000000000000014        1377.4688296009344        62.563970501560327        0.0000000000000000        1364.1794559999996     
  -1.9600000000000000       0.20000000000000018        1347.9175600139922        62.327717419028701        0.0000000000000000        1334.8866559999997     
  -1.9600000000000000       0.24000000000000021        1318.8059462629903        62.052720167908255        0.0000000000000000        1305.9138559999997     
  -1.9600000000000000       0.27999999999999980        1290.1269668586410        61.738546875585769        0.0000000000000000        1277.2610560000001     
  -1.9600000000000000       0.31999999999999984        1261.8731758046856        61.387183256025565        0.0000000000000000        1248.9282559999999     
  -1.9600000000000000       0.35999999999999988        1234.0367762004851        61.003077479900419        0.0000000000000000        1220.9154559999999     
  -1.9600000000000000       0.39999999999999991        1206.6096938027397        60.593138760280574        0.0000000000000000        1193.2226559999999     
  -1.9600000000000000       0.43999999999999995        1179.5836505559917        60.166683452692695        0.0000000000000000        1165.8498559999998     
  -1.9600000000000000       0.47999999999999998        1152.9502380994140        59.735319668927879        0.0000000000000000        1138.7970559999999     
  -1.9600000000000000       0.52000000000000002        1126.7009912598176        59.312758589110040        0.0000000000000000        1112.0642559999999     
  -1.9600000000000000       0.56000000000000005        1100.8274615379341        58.914539524744207        0.0000000000000000        1085.6514559999998     
  -1.9600000000000000       0.60000000000000009        1075.3212905984799        58.557656092754421        0.0000000000000000        1059.5586559999997     
  -1.9600000000000000       0.64000000000000012        1050.1742837646802        58.260074670762556        0.0000000000000000        1033.7858559999997     
  -1.9600000000000000       0.68000000000000016        1025.3784827989446        58.040143768292161        0.0000000000000000        1008.3330559999997     
  -1.9600000000000000       0.72000000000000020        1000.9262346127580        57.915905643660182        0.0000000000000000        983.20025599999974     
  -1.9600000000000000       0.75999999999999979        976.81025666186997        57.904334073112885        0.0000000000000000        958.38745599999993     
  -1.9600000000000000       0.79999999999999982        953.02370201868439        58.020537867752218        0.0000000000000000        933.89465599999994     
  -1.9600000000000000       0.83999999999999986        929.56022449600573        58.276986225621407        0.0000000000000000        909.72185600000000     
  -1.9600000000000000       0.87999999999999989        906.41404383070585        58.682821357353120        0.0000000000000000        885.86905599999989     
  -1.9600000000000000       0.91999999999999993        883.58001093409484        59.243323515398565        0.0000000000000000        862.33625599999982     
  -1.9600000000000000       0.95999999999999996        861.05367320629216        59.959581982731898        0.0000000000000000        839.12345599999992     
  -1.9600000000000000        1.0000000000000000        838.83133453618188        60.828416962877583        0.0000000000000000        816.23065599999995     
  -1.9600000000000000        1.0400000000000000        816.91006814527600        61.842656431754307        0.0000000000000000        793.65785599999981     
  -1.9600000000000000        1.0800000000000001        795.28767367000296        62.991744794381951        0.0000000000000000        771.40505599999983     
  -1.9600000000000000        1.1200000000000001        773.96262470452120        64.262497962817179        0.0000000000000000        749.47225599999990     
  -1.9600000000000000        1.1600000000000001        752.93401634942938        65.639910945143399        0.0000000000000000        727.85945599999980     
  -1.9600000000000000        1.2000000000000002        732.20151283108089        67.107957311441083        0.0000000000000000        706.56665599999974     
  -1.9600000000000000        1.2400000000000002        711.76529518412303        68.650335225072368        0.0000000000000000        685.59385599999973     
  -1.9600000000000000        1.2799999999999998        691.62600898999040        70.251132075358584        0.0000000000000000        664.94105600000000     
  -1.9600000000000000        1.3199999999999998        671.78471217292599        71.895395005121784        0.0000000000000000        644.60825599999998     
  -1.9600000000000000        1.3599999999999999        652.24282410407841        73.569606332265010        0.0000000000000000        624.59545599999990     
  -1.9600000000000000        1.3999999999999999        633.00208248733679        75.262069054246339        0.0000000000000000        604.90265599999998     
  -1.9600000000000000        1.4399999999999999        614.06450712618721        76.963213245224168        0.0000000000000000        585.52985600000000     
  -1.9600000000000000        1.4800000000000000        595.43236454290491        78.665836034478929        0.0000000000000000        566.47705599999995     
  -1.9600000000000000        1.5200000000000000        577.10813261903854        80.365285508066194        0.0000000000000000        547.74425599999995     