variables = "x" "y" "f" "rmse" "EI" "Exact"
 zone i=         101  j=         101  datapacking=point
  -2.0000000000000000       -2.0000000000000000       0.11349529663034985        1.0232466571752325E-002   4.3070723706861635E-003  0.11111111111111110     
  -2.0000000000000000       -1.9600000000000000       0.11343201148585805        1.1607274161840490E-002   4.8877628864988192E-003  0.11310170104958379     
  -2.0000000000000000       -1.9199999999999999       0.11368405268953291        1.5382115450445306E-002   6.2641287375565010E-003  0.11512249032971082     
  -2.0000000000000000       -1.8799999999999999       0.11424499687129677        1.9690901594305213E-002   7.7027369848271634E-003  0.11717285339332584     
  -2.0000000000000000       -1.8400000000000001       0.11510518536340877        2.3780832027570947E-002   8.9147484315748246E-003  0.11925205113527952     
  -2.0000000000000000       -1.8000000000000000       0.11625217287243558        2.7362040844017943E-002   9.7975057529799282E-003  0.12135922330097088     
  -2.0000000000000000       -1.7600000000000000       0.11767114831430128        3.0301593551921982E-002   1.0313260873512118E-002  0.12349338075479155     
  -2.0000000000000000       -1.7200000000000000       0.11934532904948197        3.2530481223416889E-002   1.0452492092628638E-002  0.12565339766787295     
  -2.0000000000000000       -1.6799999999999999       0.12125632972344783        3.4012748301802488E-002   1.0222147433977421E-002  0.12783800368173451     
  -2.0000000000000000       -1.6400000000000001       0.12338450688521618        3.4733710270134624E-002   9.6418509799034990E-003  0.13004577611319185     
  -2.0000000000000000       -1.6000000000000001       0.12570928052123026        3.4694856511779219E-002   8.7433336085201065E-003  0.13227513227513227     
  -2.0000000000000000       -1.5600000000000001       0.12820943339926710        3.3911379937796755E-002   7.5717796248385991E-003  0.13452432199741712     
  -2.0000000000000000       -1.5200000000000000       0.13086338814642740        3.2410831245058634E-002   6.1889601848917871E-003  0.13679142044210987     
  -2.0000000000000000       -1.4800000000000000       0.13364946207091594        3.0232280876813903E-002   4.6785361435730229E-003  0.13907432131731196     
  -2.0000000000000000       -1.4399999999999999       0.13654610005838996        2.7425713186326941E-002   3.1538682717488246E-003  0.14137073060393576     
  -2.0000000000000000       -1.3999999999999999       0.13953206740915874        2.4051525216819483E-002   1.7666667207016603E-003  0.14367816091954022     
  -2.0000000000000000       -1.3599999999999999       0.14258657267946884        2.0180078527981732E-002   7.0485280608200427E-004  0.14599392665265126     
  -2.0000000000000000       -1.3199999999999998       0.14568935273361955        1.5891275226981767E-002   1.3379329435128727E-004  0.14831514000949217     
  -2.0000000000000000       -1.2800000000000000       0.14882074045902285        1.1274144875525010E-002   2.9354502714034670E-006  0.15063870812243915     
  -2.0000000000000000       -1.2400000000000000       0.15196171676311379        6.4265623993737739E-003   1.3820919409705612E-012  0.15296133137542828     
  -2.0000000000000000       -1.2000000000000000       0.15509394746890659        1.4591006051500705E-003   0.0000000000000000       0.15527950310559008     
  -2.0000000000000000       -1.1600000000000001       0.15819980615410484        3.5384007601368802E-003   0.0000000000000000       0.15758951084215833     
  -2.0000000000000000       -1.1200000000000001       0.16126239049557051        8.4196544995145828E-003   1.1117287530126303E-011  0.15988743924277307     
  -2.0000000000000000       -1.0800000000000001       0.16426555617711894        1.3090430905288646E-002   1.6914907115972291E-007  0.16216917488323818     
  -2.0000000000000000       -1.0400000000000000       0.16719395942764903        1.7449147677033563E-002   5.2934345815515972E-006  0.16443041304919759     
  -2.0000000000000000       -1.0000000000000000       0.17003309042624987        2.1404316544993630E-002   2.8465549551052376E-005  0.16666666666666666     
  -2.0000000000000000      -0.95999999999999996       0.17276929658829318        2.4874191034168606E-002   7.3473141473941184E-005  0.16887327749256958     
  -2.0000000000000000      -0.91999999999999993       0.17538979641983318        2.7787115770551672E-002   1.2902741605414912E-004  0.17104542966611933     
  -2.0000000000000000      -0.87999999999999989       0.17788268458206241        3.0081875324596292E-002   1.7826914945306212E-004  0.17317816569686895     
  -2.0000000000000000      -0.84000000000000008       0.18023692876105218        3.1707984586086757E-002   2.0704890474588090E-004  0.17526640493550194     
  -2.0000000000000000      -0.80000000000000004       0.18244235889148497        3.2625911867800020E-002   2.0791308608008978E-004  0.17730496453900707     
  -2.0000000000000000      -0.76000000000000001       0.18448964923656086        3.2807235204378372E-002   1.8130624965213143E-004  0.17928858290304073     
  -2.0000000000000000      -0.71999999999999997       0.18637029377974129        3.2234736323744365E-002   1.3506662435181502E-004  0.18121194549144681     
  -2.0000000000000000      -0.67999999999999994       0.18807657533746908        3.0902441845686527E-002   8.2366914014344629E-005  0.18306971294669011     
  -2.0000000000000000      -0.63999999999999990       0.18960152875548358        2.8815632648319336E-002   3.7702137848656344E-005  0.18485655131617865     
  -2.0000000000000000      -0.60000000000000009       0.19093889850482473        2.5990873148640976E-002   1.0860860031017757E-005  0.18656716417910446     
  -2.0000000000000000      -0.56000000000000005       0.19208309094710235        2.2456207698974315E-002   1.3321333843099449E-006  0.18819632640770853     
  -2.0000000000000000      -0.52000000000000002       0.19302912149207879        1.8252024494463802E-002   2.5224153932934516E-008  0.18973891924711594     
  -2.0000000000000000      -0.47999999999999998       0.19377255682409739        1.3434790970987450E-002   2.4589871421384906E-012  0.19118996635056590     
  -2.0000000000000000      -0.43999999999999995       0.19430945232736288        8.0987488425172099E-003   0.0000000000000000       0.19254467036352435     
  -2.0000000000000000      -0.39999999999999991       0.19463628479355785        2.7114111776543669E-003   0.0000000000000000       0.19379844961240308     
  -2.0000000000000000      -0.36000000000000010       0.19474988058704787        4.8170672031482538E-003   0.0000000000000000       0.19494697442295697     
  -2.0000000000000000      -0.32000000000000006       0.19464735489559068        1.1311578280294042E-002   0.0000000000000000       0.19598620257133897     
  -2.0000000000000000      -0.28000000000000003       0.19432613183086445        1.8251148422490392E-002   1.7870152901975802E-008  0.19691241335853812     
  -2.0000000000000000      -0.23999999999999999       0.19378402826370184        2.5429290445291779E-002   5.5933219342740105E-006  0.19772223979753242     
  -2.0000000000000000      -0.19999999999999996       0.19301934059260945        3.2757098311456942E-002   8.3395660264010238E-005  0.19841269841269840     
  -2.0000000000000000      -0.15999999999999992       0.19203093588476278        4.0165501632871053E-002   3.9048304979778835E-004  0.19898121617319325     
  -2.0000000000000000      -0.12000000000000011       0.19081850119601826        4.7594430758659212E-002   1.0589308758925785E-003  0.19942565411614549     
  -2.0000000000000000       -8.0000000000000071E-002  0.18938312774818547        5.4990451384227410E-002   2.1341221687967496E-003  0.19974432726110578     
  -2.0000000000000000       -4.0000000000000036E-002  0.18772800222014480        6.2306012066507516E-002   3.5982047128504061E-003  0.19993602047344849     
  -2.0000000000000000        0.0000000000000000       0.18585910058269256        6.9499081727055864E-002   5.4044544458076438E-003  0.20000000000000001     
  -2.0000000000000000        4.0000000000000036E-002  0.18378587132162588        7.6532870788330043E-002   7.4980487875276249E-003  0.19993602047344849     
  -2.0000000000000000        8.0000000000000071E-002  0.18152161833126951        8.3375523379405805E-002   9.8253988021202998E-003  0.19974432726110578     
  -2.0000000000000000       0.12000000000000011       0.17908311826538176        8.9999710799970503E-002   1.2337448941240484E-002  0.19942565411614549     
  -2.0000000000000000       0.16000000000000014       0.17648993694729664        9.6382135213625500E-002   1.4990312468562750E-002  0.19898121617319325     
  -2.0000000000000000       0.20000000000000018       0.17376373394589451       0.10250296066587608        1.7744868692133486E-002  0.19841269841269840     
  -2.0000000000000000       0.24000000000000021       0.17092756485391114       0.10834517979599148        2.0566052803394994E-002  0.19772223979753242     
  -2.0000000000000000       0.27999999999999980       0.16800517911444107       0.11389392872571028        2.3422138832283793E-002  0.19691241335853812     
  -2.0000000000000000       0.31999999999999984       0.16502031119496419       0.11913576648721119        2.6284126274783780E-002  0.19598620257133897     
  -2.0000000000000000       0.35999999999999988       0.16199596286492746       0.12405793844456588        2.9125262173237364E-002  0.19494697442295697     
  -2.0000000000000000       0.39999999999999991       0.15895369471994883       0.12864766068244915        3.1920698766646605E-002  0.19379844961240308     
  -2.0000000000000000       0.43999999999999995       0.15591319736866793       0.13289165270100978        3.4647252587458099E-002  0.19254467036352435     
  -2.0000000000000000       0.47999999999999998       0.15289234768496535       0.13677608928830598        3.7283213128966458E-002  0.19118996635056590     
  -2.0000000000000000       0.52000000000000002       0.14990737985651714       0.14028669145571435        3.9808195472104249E-002  0.18973891924711594     
  -2.0000000000000000       0.56000000000000005       0.14697304307317421       0.14340885016849964        4.2203032379509300E-002  0.18819632640770853     
  -2.0000000000000000       0.60000000000000009       0.14410274318596697       0.14612777167152005        4.4449697245229909E-002  0.18656716417910446     
  -2.0000000000000000       0.64000000000000012       0.14130866804748798       0.14842863673018172        4.6531251191922626E-002  0.18485655131617865     
  -2.0000000000000000       0.68000000000000016       0.13860189619788041       0.15029676776695253        4.8431809374282153E-002  0.18306971294669008     
  -2.0000000000000000       0.72000000000000020       0.13599248851414394       0.15171779938690269        5.0136523002424563E-002  0.18121194549144679     
  -2.0000000000000000       0.75999999999999979       0.13348956239394510       0.15267784910371870        5.1631574760972118E-002  0.17928858290304076     
  -2.0000000000000000       0.79999999999999982       0.13110134799859277       0.15316368618579904        5.2904186205153164E-002  0.17730496453900710     
  -2.0000000000000000       0.83999999999999986       0.12883522603332578       0.15316289744454806        5.3942636404946648E-002  0.17526640493550197     
  -2.0000000000000000       0.87999999999999989       0.12669774649652987       0.15266404949779094        5.4736291620612693E-002  0.17317816569686895     
  -2.0000000000000000       0.91999999999999993       0.12469462831807336       0.15165684762083420        5.5275645925785308E-002  0.17104542966611933     
  -2.0000000000000000       0.95999999999999996       0.12283077066859505       0.15013229422641788        5.5552359215487748E-002  0.16887327749256958     
  -2.0000000000000000        1.0000000000000000       0.12111037277660835       0.14808285629066775        5.5559248751106759E-002  0.16666666666666666     
  -2.0000000000000000        1.0400000000000000       0.11953711215175453       0.14550263964846630        5.5290254291945506E-002  0.16443041304919759     
  -2.0000000000000000        1.0800000000000001       0.11811430724658087       0.14238756461962435        5.4740409658660873E-002  0.16216917488323818     
  -2.0000000000000000        1.1200000000000001       0.11684505835235137       0.13873554228985430        5.3905824670605659E-002  0.15988743924277307     
  -2.0000000000000000        1.1600000000000001       0.11573236643069751       0.13454665139987862        5.2783678772934557E-002  0.15758951084215833     
  -2.0000000000000000        1.2000000000000002       0.11477922953793257       0.12982331609029607        5.1372227766079921E-002  0.15527950310559005     
  -2.0000000000000000        1.2400000000000002       0.11398871645058606       0.12457048524947989        4.9670825375504865E-002  0.15296133137542828     
  -2.0000000000000000        1.2799999999999998       0.11336401703645449       0.11879581509123298        4.7679963019711086E-002  0.15063870812243915     
  -2.0000000000000000        1.3199999999999998       0.11290846887732209       0.11250985816957980        4.5401328209981502E-002  0.14831514000949217     
  -2.0000000000000000        1.3599999999999999       0.11262555963878995       0.10572626495515096        4.2837890610453053E-002  0.14599392665265126     
  -2.0000000000000000        1.3999999999999999       0.11251890461857655        9.8462009645205129E-002   3.9994029069354835E-002  0.14367816091954022     
  -2.0000000000000000        1.4399999999999999       0.11259219885093100        9.0737662818454357E-002   3.6875715138085831E-002  0.14137073060393576     
  -2.0000000000000000        1.4800000000000000       0.11284914309827207        8.2577756192883323E-002   3.3490793958288079E-002  0.13907432131731196     
  -2.0000000000000000        1.5200000000000000       0.11329334308736114        7.4011334576276219E-002   2.9849443280194326E-002  0.13679142044210987     
  -2.0000000000000000        1.5600000000000001       0.11392818230858490        6.5072908420502756E-002   2.5964989539005650E-002  0.13452432199741712     
  -2.0000000000000000        1.6000000000000001       0.11475667013148175        5.5804329063741540E-002   2.1855511808161466E-002  0.13227513227513227     
  -2.0000000000000000        1.6400000000000001       0.11578126592387963        4.6259018091997610E-002   1.7547423805812527E-002  0.13004577611319185     
  -2.0000000000000000        1.6800000000000002       0.11700367894739855        3.6513126663142458E-002   1.3084782810023522E-002  0.12783800368173451     
  -2.0000000000000000        1.7200000000000002       0.11842464370991898        2.6701738784881895E-002   8.5586964876164136E-003  0.12565339766787292     
  -2.0000000000000000        1.7599999999999998       0.12004367042986142        1.7178100579349900E-002   4.2278052711791983E-003  0.12349338075479155     
  -2.0000000000000000        1.7999999999999998       0.12185877024144609        9.5798302284247974E-003   1.0967228073089621E-003  0.12135922330097090     
  -2.0000000000000000        1.8399999999999999       0.12386615518991552        1.0543115383738609E-002   9.7866981210509752E-004  0.11925205113527952     
  -2.0000000000000000        1.8799999999999999       0.12605997062763641        1.8889446181374229E-002   2.9733983120233650E-003  0.11717285339332584     
  -2.0000000000000000        1.9199999999999999       0.12843233507755314        2.8770783790381761E-002   5.6551362544309831E-003  0.11512249032971082     
  -2.0000000000000000        1.9600000000000000       0.13097363185719790        3.8972166430561263E-002   8.4897896895863266E-003  0.11310170104958379     
  -2.0000000000000000        2.0000000000000000       0.13367280680370136        4.9204860857572710E-002   1.1318092971239757E-002  0.11111111111111110     
  -1.9600000000000000       -2.0000000000000000       0.11381134437089774        2.3868704068331151E-003   1.0166268467370846E-003  0.11310170104958379     
  -1.9600000000000000       -1.9600000000000000       0.11378596907998542        6.1486950642720053E-003   2.5294806259562991E-003  0.11516491615994104     
  -1.9600000000000000       -1.9199999999999999       0.11407946546063572        1.1925892951279377E-002   4.6870927199222966E-003  0.11726078799249533     
  -1.9600000000000000       -1.8799999999999999       0.11468557522095552        1.7215648322150487E-002   6.5004808145849701E-003  0.11938872970391595     
  -1.9600000000000000       -1.8400000000000001       0.11559479257571739        2.1857163915654055E-002   7.9161096489086258E-003  0.12154803578374174     
  -1.9600000000000000       -1.8000000000000000       0.11679481182503348        2.5788138579323397E-002   8.9223026194262325E-003  0.12373787368837855     
  -1.9600000000000000       -1.7600000000000000       0.11827094708945055        2.8970690835566571E-002   9.5197558746089490E-003  0.12595727529222089     
  -1.9600000000000000       -1.7200000000000000       0.12000652546022259        3.1381379084694780E-002   9.7178713034522732E-003  0.12820512820512822     
  -1.9600000000000000       -1.6799999999999999       0.12198325479186747        3.3008925301082785E-002   9.5344323418243334E-003  0.13048016701461379     
  -1.9600000000000000       -1.6400000000000001       0.12418156733218451        3.3853585887785233E-002   8.9963183845112316E-003  0.13278096452092628     
  -1.9600000000000000       -1.6000000000000001       0.12658094034962611        3.3927007247871628E-002   8.1409754493541424E-003  0.13510592304366623     
  -1.9600000000000000       -1.5600000000000001       0.12916019467944376        3.3252287032949350E-002   7.0188007504665686E-003  0.13745326588959753     
  -1.9600000000000000       -1.5200000000000000       0.13189777115882001        3.1864210422128163E-002   5.6967837572242160E-003  0.13982102908277405     
  -1.9600000000000000       -1.4800000000000000       0.13477198500734339        2.9809773368164788E-002   4.2637528056439821E-003  0.14220705346985210     
  -1.9600000000000000       -1.4399999999999999       0.13776125847024473        2.7149313656146014E-002   2.8369290785988568E-003  0.14460897732531236     
  -1.9600000000000000       -1.3999999999999999       0.14084431270186473        2.3959127151763904E-002   1.5663636304740223E-003  0.14702422959303693     
  -1.9600000000000000       -1.3599999999999999       0.14400028751681226        2.0337961685128005E-002   6.2274909409852034E-004  0.14945002391200385     
  -1.9600000000000000       -1.3199999999999998       0.14720882267490282        1.6424270095273592E-002   1.2829314495265754E-004  0.15188335358444716     
  -1.9600000000000000       -1.2800000000000000       0.15045012206687683        1.2448459745145857E-002   5.7726628583059487E-006  0.15432098765432101     
  -1.9600000000000000       -1.2400000000000000       0.15370500245266064        8.9123973341355047E-003   6.5866328153898542E-009  0.15675946827188361     
  -1.9600000000000000       -1.2000000000000000       0.15695492733992805        7.0733304410006527E-003   5.3453980928829533E-013  0.15919510952623536     
  -1.9600000000000000       -1.1600000000000001       0.16018202707677298        8.3425598115604727E-003   1.7489535733245367E-011  0.16162399793121282     
  -1.9600000000000000       -1.1200000000000001       0.16336911275346427        1.1682922006426611E-002   2.6247849122428335E-008  0.16404199475065617     
  -1.9600000000000000       -1.0800000000000001       0.16649970796209884        1.5646446264371772E-002   1.4951014521738798E-006  0.16644474034620507     
  -1.9600000000000000       -1.0400000000000000       0.16955808950200629        1.9624340056682781E-002   1.2821376771981308E-005  0.16882766072393302     
  -1.9600000000000000       -1.0000000000000000       0.17252931929747600        2.3352439935410089E-002   4.4331803950516883E-005  0.17118597644480965     
  -1.9600000000000000      -0.95999999999999996       0.17539926655612495        2.6680474361561738E-002   9.4698066877685946E-005  0.17351471404775126     
  -1.9600000000000000      -0.91999999999999993       0.17815462086848707        2.9505360821790040E-002   1.5148412857896910E-004  0.17580872011251758     
  -1.9600000000000000      -0.87999999999999989       0.18078289690444413        3.1749893313221193E-002   1.9916179701867523E-004  0.17806267806267809     
  -1.9600000000000000      -0.84000000000000008       0.18327243131620791        3.3354913965030798E-002   2.2531319958127771E-004  0.18027112777617538     
  -1.9600000000000000      -0.80000000000000004       0.18561237241165690        3.4276112146227104E-002   2.2371609288998466E-004  0.18242848803269118     
  -1.9600000000000000      -0.76000000000000001       0.18779266311591369        3.4482633437286754E-002   1.9530178316848443E-004  0.18452908178328906     
  -1.9600000000000000      -0.71999999999999997       0.18980401769314373        3.3956500002242714E-002   1.4767435813117845E-004  0.18656716417910449     
  -1.9600000000000000      -0.67999999999999994       0.19163789265464451        3.2692493981900869E-002   9.3266740728637876E-005  0.18853695324283562     
  -1.9600000000000000      -0.63999999999999990       0.19328645223338312        3.0698472857542163E-002   4.5837468774272724E-005  0.19043266301035955     
  -1.9600000000000000      -0.60000000000000009       0.19474252875922940        2.7996394973371697E-002   1.5289355833379996E-005  0.19224853891110427     
  -1.9600000000000000      -0.56000000000000005       0.19599957822322406        2.4624975578066980E-002   2.6124062266384834E-006  0.19397889509621355     
  -1.9600000000000000      -0.52000000000000002       0.19705163127330533        2.0646862001643739E-002   1.1970177088138454E-007  0.19561815336463223     
  -1.9600000000000000      -0.47999999999999998       0.19789323983801477        1.6170868252844993E-002   2.5690899570563497E-010  0.19716088328075709     
  -1.9600000000000000      -0.43999999999999995       0.19851941952878605        1.1438261830014106E-002   0.0000000000000000       0.19860184302510328     
  -1.9600000000000000      -0.39999999999999991       0.19892558792551121        7.2702608757735229E-003   0.0000000000000000       0.19993602047344849     
  -1.9600000000000000      -0.36000000000000010       0.19910749894238569        6.6836103503054908E-003   0.0000000000000000       0.20115867396202125     
  -1.9600000000000000      -0.32000000000000006       0.19906118891591390        1.0992718306040065E-002   0.0000000000000000       0.20226537216828480     
  -1.9600000000000000      -0.28000000000000003       0.19878300416464412        1.7109384284305400E-002   9.7634969709978127E-010  0.20325203252032520     
  -1.9600000000000000      -0.23999999999999999       0.19826969293838267        2.3839016409185742E-002   1.1204984000399882E-006  0.20411495754408884     
  -1.9600000000000000      -0.19999999999999996       0.19751850101257640        3.0855680725733831E-002   3.0763821493088022E-005  0.20485086856768273     
  -1.9600000000000000      -0.15999999999999992       0.19652727334683906        3.8017029040416608E-002   1.9742746628486642E-004  0.20545693622616701     
  -1.9600000000000000      -0.12000000000000011       0.19529473296533084        4.5234561170848071E-002   6.4159572909284210E-004  0.20593080724876442     
  -1.9600000000000000       -8.0000000000000071E-002  0.19382113367232501        5.2442254872863407E-002   1.4480980091952306E-003  0.20627062706270627     
  -1.9600000000000000       -4.0000000000000036E-002  0.19210903319199291        5.9586670780089002E-002   2.6340735948036679E-003  0.20647505781301620     
  -1.9600000000000000        0.0000000000000000       0.19016407039141248        6.6623110410380368E-002   4.1747247832593388E-003  0.20654329147389294     
  -1.9600000000000000        4.0000000000000036E-002  0.18799573203474085        7.3513813612007026E-002   6.0268698205101397E-003  0.20647505781301620     
  -1.9600000000000000        8.0000000000000071E-002  0.18561778819173064        8.0226900862528774E-002   8.1423172120036868E-003  0.20627062706270627     
  -1.9600000000000000       0.12000000000000011       0.18304788103480440        8.6735550246999665E-002   1.0473984201896895E-002  0.20593080724876442     
  -1.9600000000000000       0.16000000000000014       0.18030678171245262        9.3017245753224675E-002   1.2978160215327102E-002  0.20545693622616701     
  -1.9600000000000000       0.20000000000000018       0.17741763559775406        9.9053036545650744E-002   1.5614969376989633E-002  0.20485086856768273     
  -1.9600000000000000       0.24000000000000021       0.17440520653908870       0.10482677653167015        1.8348095431137339E-002  0.20411495754408884     
  -1.9600000000000000       0.27999999999999980       0.17129511779609224       0.11032433753408584        2.1144271705712831E-002  0.20325203252032520     
  -1.9600000000000000       0.31999999999999984       0.16811308729799251       0.11553280324817569        2.3972759497524920E-002  0.20226537216828480     
  -1.9600000000000000       0.35999999999999988       0.16488415481891833       0.12043965947420923        2.6804907532916093E-002  0.20115867396202125     
  -1.9600000000000000       0.39999999999999991       0.16163191996064019       0.12503201900332431        2.9613825794258919E-002  0.19993602047344849     
  -1.9600000000000000       0.43999999999999995       0.15837807332163453       0.12929614195509018        3.2374166689422675E-002  0.19860184302510328     
  -1.9600000000000000       0.47999999999999998       0.15514243533109381       0.13321744059567309        3.5061973433984317E-002  0.19716088328075709     
  -1.9600000000000000       0.52000000000000002       0.15194311597047638       0.13678063360616760        3.7654573376163084E-002  0.19561815336463223     
  -1.9600000000000000       0.56000000000000005       0.14879666148159565       0.13996992655247192        4.0130506532075158E-002  0.19397889509621355     
  -1.9600000000000000       0.60000000000000009       0.14571818522778823       0.14276920739479804        4.2469480822550650E-002  0.19224853891110427     
  -1.9600000000000000       0.64000000000000012       0.14272148236311516       0.14516224951433118        4.4652347423799255E-002  0.19043266301035955     
  -1.9600000000000000       0.68000000000000016       0.13981912791863385       0.14713291637043649        4.6661091443455968E-002  0.18853695324283559     
  -1.9600000000000000       0.72000000000000020       0.13702255786887935       0.14866536347589254        4.8478834661395659E-002  0.18656716417910446     
  -1.9600000000000000       0.75999999999999979       0.13434213269577377       0.14974423478585688        5.0089848309880787E-002  0.18452908178328908     
  -1.9600000000000000       0.79999999999999982       0.13178718292127492       0.15035485179393293        5.1479574828925637E-002  0.18242848803269121     
  -1.9600000000000000       0.83999999999999986       0.12936603603416708       0.15048339460518290        5.2634658255414746E-002  0.18027112777617540     
  -1.9600000000000000       0.87999999999999989       0.12708602419048379       0.15011707501897067        5.3542983427570495E-002  0.17806267806267809     
  -1.9600000000000000       0.91999999999999993       0.12495347261260489       0.14924430226805308        5.4193724287016874E-002  0.17580872011251758     
  -1.9600000000000000       0.95999999999999996       0.12297370273059524       0.14785484529970042        5.4577386649756934E-002  0.17351471404775126     
  -1.9600000000000000        1.0000000000000000       0.12115115712898028       0.14594000239898780        5.4685797228809813E-002  0.17118597644480965     
  -1.9600000000000000        1.0400000000000000       0.11948959094873954       0.14349277590385673        5.4512060864688641E-002  0.16882766072393302     
  -1.9600000000000000        1.0800000000000001       0.11799224801950481       0.14050804565699554        5.4050522193277682E-002  0.16644474034620507     
  -1.9600000000000000        1.1200000000000001       0.11666201490463821       0.13698274011759659        5.3296736150792091E-002  0.16404199475065617     
  -1.9600000000000000        1.1600000000000001       0.11550155257592298       0.13291600450442648        5.2247448668005264E-002  0.16162399793121282     
  -1.9600000000000000        1.2000000000000002       0.11451340539038912       0.12830936526266831        5.0900588797332801E-002  0.15919510952623536     
  -1.9600000000000000        1.2400000000000002       0.11370008699337744       0.12316689004071016        4.9255273713941942E-002  0.15675946827188361     
  -1.9600000000000000        1.2799999999999998       0.11306414270049581       0.11749534223309656        4.7311829257950126E-002  0.15432098765432101     
  -1.9600000000000000        1.3199999999999998       0.11260818787727225       0.11130432899160954        4.5071821571130280E-002  0.15188335358444716     
  -1.9600000000000000        1.3599999999999999       0.11233492184095692       0.10460644143755568        4.2538114514018670E-002  0.14945002391200385     
  -1.9600000000000000        1.3999999999999999       0.11224711673773477        9.7417385639419693E-002   3.9714952138657417E-002  0.14702422959303693     
  -1.9600000000000000        1.4399999999999999       0.11234758079234211        8.9756102753999922E-002   3.6608077461280697E-002  0.14460897732531236     
  -1.9600000000000000        1.4800000000000000       0.11263909528111146        8.1644876588237339E-002   3.3224910226126683E-002  0.14220705346985210     
  -1.9600000000000000        1.5200000000000000       0.11312432460639513        7.3109426770576802E-002   2.9574829187362928E-002  0.13982102908277405     