TITLE = " "
VARIABLES = "x" "y" "f"
ZONE T="hsample", I=  155, J=    1, K=    1, F=BLOCK
     0.00000000    -1.91435556     0.42606898    -0.05857522     1.52627018    -0.55745180     0.85890751     0.32634692    -1.98839010     1.97091575     1.68159736    -0.81058614     1.52473376     1.99940327     1.02099440    -1.22303800    -0.90333627    -1.36892382    -1.49888350    -1.04384673     0.80285072     1.39736224    -1.29491111     0.63050295     0.92796568    -1.99895109     0.15122908    -0.97479669    -0.24478968     1.19161347    -0.05837967     0.25794310    -0.36970416     0.04838881     0.23653408    -1.99412191    -1.83640639    -0.05607495    -1.98521622    -1.98831305    -0.59292387     0.43863356    -1.38157269     0.74116455     0.37808794    -0.35443982     1.99575516     1.98587033    -0.27979538    -0.22220632     1.27744883    -0.52350022     1.05842727    -0.47154444     1.45308631    -1.25748404    -1.43316958    -1.00236143    -1.17542805    -1.99584037     0.47734607     0.83096977    -0.63026317     0.63143235    -0.47820705     0.18581756     1.81430854    -1.79885656    -1.41360457     0.29933457     0.53745344    -0.34769323     1.96153049     0.19912928     1.00095616    -0.06597750     0.14771340     1.30823578     0.00843137    -0.55876704    -0.61511323    -0.31932665    -0.68350129    -0.26006307    -1.47683131     0.72280213     1.98264971    -0.21689257     0.24324234    -0.91248739    -0.80051157     0.48828956     1.08464385    -0.02081473     0.02627360    -0.01880327     1.23974053     0.17649672    -0.85214233     1.52504242    -1.06865662    -1.85236182     0.40603657    -0.92663110     1.07999728    -1.20140774     0.71292949     0.09194195     1.91134049     0.33236311     0.19028659    -0.18455848    -0.46987724     1.32587715    -0.08454343    -0.42806778     1.84399527     1.98748773    -0.78480403    -1.90062545     1.63446260    -0.50653317     1.52878045     0.66200049     0.36480745    -1.25421914     1.60443199    -0.67691029    -1.84764441    -0.37022251    -0.92048692    -1.53690990     0.87407394    -0.66229327     0.10910401     0.08432174    -0.09838285     0.74704104     0.31802128    -0.50065451     1.15096820     0.50412874     1.28851575     0.01975465     0.71127636     0.97285037     1.39560421    -1.26921962     1.58952390     1.23254157     0.37359066    -0.15305724     0.22117582     1.74689448    -1.46109163
     0.00000000     0.02286475    -1.71213671     1.11823797    -0.77449323    -0.77256764     0.31918200    -0.80673607    -1.95968880    -1.99997315     1.25673796     0.54739341     1.91623613     0.66596953     1.47713015     1.55449129     1.96730455     1.05336831     1.99518154    -1.27093427    -1.19273338     0.44978595    -0.67244623    -0.06835755    -0.79950287     0.97572583    -1.34755221    -0.09964677    -1.47868939    -0.17410287     1.72683696     1.87438462     1.58979120    -0.45513337     1.52620537    -0.68788182    -0.96250777     0.40596176    -0.32572847    -1.27098716     0.20223760     0.79590428    -0.06848985     0.80309809     0.11441513     0.80347493    -0.25741837    -1.27931141    -0.91166476    -0.20127189    -1.76825830    -1.96759612    -1.92666697    -0.41520306    -1.54274926    -1.99878239    -1.82460386    -1.97543232    -1.75759076     1.97656569     0.36343099    -0.35477594     1.20150914     0.54284841    -0.00232493     0.35208851     0.08046736     1.39347063     0.39723442    -0.38399878    -0.56891923     0.45032609     1.99997678    -0.18327110     1.99863404     0.69152715     0.63517066    -0.53266637    -0.72001410    -1.09907037     0.68685357     0.21040921    -1.41326831    -0.46349754    -0.51622667     1.11905688     1.52226362     1.33731694     1.10881158     0.95500408    -0.24390034    -1.39927021     0.41660165    -0.24806253     0.22197698    -1.99728492     1.06031613    -1.98391780     0.06454157    -0.28210644     0.34262444     0.54050780    -0.22882192    -0.55819790     0.01802759    -0.37500435    -0.99315474    -0.91255516    -1.75284804     0.50896717     0.10116578     0.07273956     1.99871336    -0.98952932    -1.17848628    -0.24454381     1.82060933    -0.58274213    -0.78564136    -1.76000955     0.68567909     0.38403548     0.82643596    -0.30922517    -0.54589096     0.69505294    -1.99049216    -0.05819522     1.83128086    -0.69019015     1.49098508     0.71711358    -0.07463154    -0.59320809     0.98543056     1.99527365     1.99194736    -0.81353781    -1.07282967     0.93465007     1.67896063     1.41151079     1.58777459     1.30515439     0.38087952     0.58229369     0.04018160    -1.37148064     0.15018522     0.82483185    -0.04866598     0.52489147     0.81494874    -1.22519416    -0.75093029
     1.00000000     0.21434941     0.24313467     0.44367793     0.25449564     0.52421527     0.54359665     0.56904658     0.11371292     0.11255682     0.18493997     0.51106731     0.14292301     0.18378539     0.23672320     0.20357207     0.17586117     0.25103317     0.13836232     0.26991355     0.32603215     0.31696438     0.31959310     0.71316161     0.39994798     0.16812808     0.35226559     0.51016294     0.30802931     0.40812087     0.25091748     0.21834765     0.27291703     0.82679623     0.29539905     0.18349622     0.18872163     0.85620152     0.19813034     0.15223487     0.71815412     0.54768621     0.34323757     0.45572798     0.86502099     0.56458912     0.19804714     0.15196832     0.52371977     0.91752714     0.17365293     0.19434507     0.17145854     0.71697553     0.18209844     0.15205894     0.15666236     0.16928892     0.18279008     0.11248353     0.73532582     0.55054658     0.35200659     0.59053100     0.81387667     0.86318926     0.23265605     0.16187397     0.31684944     0.80837068     0.62014531     0.75546722     0.11302616     0.93175738     0.16676530     0.67450767     0.70162587     0.33386593     0.65854835     0.39679764     0.54050194     0.87241647     0.28864183     0.77974973     0.29006352     0.36039527     0.13796555     0.35267659     0.43694263     0.36434305     0.58812938     0.31285354     0.42553025     0.94164772     0.95241353     0.20042086     0.27313249     0.20132549     0.57793040     0.29365657     0.44259176     0.21171222     0.82154069     0.46078064     0.46152729     0.38699558     0.40086189     0.54312103     0.12943813     0.73018667     0.95561777     0.96213714     0.19173103     0.26758584     0.41736619     0.80447694     0.12961869     0.18904679     0.44779801     0.12970151     0.24145119     0.71222073     0.24874594     0.65194792     0.69877226     0.32720755     0.13269179     0.68418442     0.12874355     0.61979867     0.24568016     0.25797504     0.56510740     0.55849441     0.50429227     0.20047203     0.20090272     0.45046789     0.44402981     0.47075977     0.19441498     0.30802322     0.19300172     0.36984735     0.60569966     0.43754029     0.33906056     0.22262405     0.28175825     0.31254822     0.87570401     0.76985994     0.58375065     0.18009124     0.27036636
