TITLE = " "
VARIABLES = "x" "y" "f"
ZONE T="hsample", I=  105, J=    1, K=    1, F=BLOCK
     0.00000000     1.41896849     0.60344365    -1.92259215    -0.00618698     1.97513072     1.57919153     1.71856507     1.85483097     0.14033035    -0.80088530     1.11125435     1.31878328    -1.93411608    -1.28227046     0.62888280    -1.88220049    -0.19203329    -0.89730301     1.94792726     1.34383476     0.75493047     0.66261968    -1.99467213    -1.67367940    -1.24574865    -1.92064966    -0.38507117     0.64402340    -0.53335208    -0.49307132    -1.21968452    -0.13837825     0.60743397     1.98615866     1.29681576     1.66762831     1.99251603     1.96208670    -1.52409874    -1.18722651     1.74360139    -0.45713118     1.96534887     1.15911443    -1.96877669    -0.34850913    -1.99489337     0.93810373     0.31624348     0.23069639    -0.65625354    -1.86457991     0.14571897     1.01613973    -1.69586650    -1.65818866     1.70285397     0.34389578     1.50866330     1.99715963    -1.81788520    -0.95655055     0.62838117     1.05913381     1.65868450     0.37657888     0.86630239    -0.83698901     1.79775724     1.53915763    -1.35052094    -0.97540392    -0.19095277    -1.39412624    -0.98181895     1.67852257     0.46627343     1.98797569     0.92163143    -1.01986512     1.66528281     1.08261170     1.69121474     1.58307848     1.36912259     1.34507316     1.35521556    -0.77392109     0.12832336     0.09274861    -0.81809510     1.26029265     1.04607172    -0.47353789     0.89480031     1.08130511     1.77912325    -0.52635330     0.03673168     0.78910884     1.88911834     1.46575468    -0.78157150    -1.42981994
     0.00000000     1.01546920     0.99086763    -0.48778772    -1.24824207    -1.77673433    -0.96178362     1.82426681     0.31684252     1.98705663     1.94745030     1.99628162    -1.76198784    -1.89872696    -1.96147812     1.61533820     1.58649406     0.93700553    -0.67020515     0.95847730     0.15643815    -0.47381312    -0.90152529    -1.26990988     1.95819210     0.65613482     0.78819157    -0.25555724    -1.96830168    -1.99712224    -1.64455200     1.56096951     1.50967619     0.33754531     1.52097312     0.63895766     1.26586617    -0.17781567    -1.09908144    -0.16490140    -0.19535904    -0.51189257     0.29977300     1.96563228     1.61591476     1.87370796     1.81542053     0.11900047     0.34569485     1.26785059    -0.61978536     1.25029888     1.29826691     0.70699978    -0.89989330    -0.88435964    -1.19522003    -0.00621247    -0.00841865     1.98950426    -0.75842058    -1.64278899    -1.37839394    -1.65404744    -1.58097695     0.78745381     1.84600038     1.85070974     0.80960846    -1.55456833    -1.50795213    -0.76408054     0.03710564    -1.90569029     1.99888410     1.35659903     0.45558072    -0.45390084     0.48529265     1.41499116     1.74199790    -1.32041431    -1.28431839    -1.98568375    -0.30001123    -0.19559076    -1.41177502     1.74897593    -1.86618738    -1.99444456     1.67246527     1.03466657     0.87909585     1.17462251     1.40950819    -1.13068909     0.04177807     1.60910355     1.97549639     1.17324022    -0.08801574     1.32093573     1.52608778     0.37375604     1.00237273
     1.00000000    11.40940133     4.92493598     0.08978118     0.28523866     1.21944567     1.85411578    34.56466341     8.77295328     8.39290734     3.14736315    22.36586637     0.64197587     0.02164798     0.03901736     9.43306431     0.74400581     2.10638297     0.20856424    18.29091635     4.48291236     1.32460903     0.78748921     0.03821290     1.32911420     0.55454139     0.32224019     0.52696118     0.26599486     0.07962125     0.11793480     1.40675408     3.94046186     2.57276008    33.35246820     6.92940131    18.79318832     6.13923630     2.37027328     0.18470411     0.25092893     3.42708082     0.85439798    50.95694971    16.03909516     0.90931044     4.33582282     0.15321810     3.61032785     4.87487306     0.67767397     1.81130095     0.56761438     2.34601643     1.12327265     0.07575687     0.05764748     5.45559402     1.39860754    33.05482560     3.45125886     0.03140858     0.09681586     0.35855749     0.59342577    11.54368238     9.23110962    15.13503312     0.97299090     1.27530952     1.03169750     0.12068137     0.39129314     0.12286820     1.83080885     1.45467146     8.44946635     1.01244945    11.86114982    10.34623397     2.05881954     1.41180425     0.81733463     0.74492703     3.60768844     3.23339231     0.93547406    22.29118918     0.07135353     0.15472264     5.84282185     1.24181184     8.49424184     9.21372503     2.54968622     0.78986852     3.07431828    29.61339516     4.25946298     3.35339041     2.01595514    24.78042621    19.92235484     0.66510161     0.65217183
