TITLE = " "
VARIABLES = "x" "y" "f"
ZONE T="hsample", I=  150, J=    1, K=    1, F=BLOCK
    -2.00000000     0.00000000    -1.00000000     1.00000000    -1.50000000     0.50000000    -0.50000000     1.50000000    -1.75000000     0.25000000    -0.75000000     1.25000000    -1.25000000     0.75000000    -0.25000000     1.75000000    -1.87500000     0.12500000    -0.87500000     1.12500000    -1.37500000     0.62500000    -0.37500000     1.62500000    -1.62500000     0.37500000    -0.62500000     1.37500000    -1.12500000     0.87500000    -0.12500000     1.87500000    -1.93750000     0.06250000    -0.93750000     1.06250000    -1.43750000     0.56250000    -0.43750000     1.56250000    -1.68750000     0.31250000    -0.68750000     1.31250000    -1.18750000     0.81250000    -0.18750000     1.81250000    -1.81250000     0.18750000    -0.81250000     1.18750000    -1.31250000     0.68750000    -0.31250000     1.68750000    -1.56250000     0.43750000    -0.56250000     1.43750000    -1.06250000     0.93750000    -0.06250000     1.93750000    -1.96875000     0.03125000    -0.96875000     1.03125000    -1.46875000     0.53125000    -0.46875000     1.53125000    -1.71875000     0.28125000    -0.71875000     1.28125000    -1.21875000     0.78125000    -0.21875000     1.78125000    -1.84375000     0.15625000    -0.84375000     1.15625000    -1.34375000     0.65625000    -0.34375000     1.65625000    -1.59375000     0.40625000    -0.59375000     1.40625000    -1.09375000     0.90625000    -0.09375000     1.90625000    -1.90625000     0.09375000    -0.90625000     1.09375000    -1.40625000     0.59375000    -0.40625000     1.59375000    -1.65625000     0.34375000    -0.65625000     1.34375000    -1.15625000     0.84375000    -0.15625000     1.84375000    -1.78125000     0.21875000    -0.78125000     1.21875000    -1.28125000     0.71875000    -0.28125000     1.71875000    -1.53125000     0.46875000    -0.53125000     1.46875000    -1.03125000     0.96875000    -0.03125000     1.96875000    -1.98437500     0.01562500    -0.98437500     1.01562500    -1.48437500     0.51562500    -0.48437500     1.51562500    -1.73437500     0.26562500    -0.73437500     1.26562500    -1.23437500     0.76562500    -0.23437500     1.76562500    -1.85937500     0.14062500    -0.85937500     1.14062500    -1.35937500     0.64062500
    -2.00000000     0.00000000     1.00000000    -1.00000000     0.50000000    -1.50000000    -0.50000000     1.50000000     1.75000000    -0.25000000    -1.25000000     0.75000000    -0.75000000     1.25000000     0.25000000    -1.75000000     0.12500000    -1.87500000    -0.87500000     1.12500000    -1.37500000     0.62500000     1.62500000    -0.37500000    -0.12500000     1.87500000     0.87500000    -1.12500000     1.37500000    -0.62500000    -1.62500000     0.37500000     1.18750000    -0.81250000    -1.81250000     0.18750000    -0.31250000     1.68750000     0.68750000    -1.31250000    -1.06250000     0.93750000     1.93750000    -0.06250000     0.43750000    -1.56250000    -0.56250000     1.43750000    -0.93750000     1.06250000     0.06250000    -1.93750000     1.56250000    -0.43750000    -1.43750000     0.56250000     0.81250000    -1.18750000    -0.18750000     1.81250000    -1.68750000     0.31250000     1.31250000    -0.68750000     0.65625000    -1.34375000    -0.34375000     1.65625000    -1.84375000     0.15625000     1.15625000    -0.84375000    -0.59375000     1.40625000     0.40625000    -1.59375000     1.90625000    -0.09375000    -1.09375000     0.90625000    -1.46875000     0.53125000     1.53125000    -0.46875000     0.03125000    -1.96875000    -0.96875000     1.03125000     1.28125000    -0.71875000    -1.71875000     0.28125000    -0.21875000     1.78125000     0.78125000    -1.21875000    -0.40625000     1.59375000     0.59375000    -1.40625000     1.09375000    -0.90625000    -1.90625000     0.09375000     0.34375000    -1.65625000    -0.65625000     1.34375000    -1.15625000     0.84375000     1.84375000    -0.15625000     1.71875000    -0.28125000    -1.28125000     0.71875000    -0.78125000     1.21875000     0.21875000    -1.78125000    -1.53125000     0.46875000     1.46875000    -0.53125000     0.96875000    -1.03125000    -0.03125000     1.96875000     1.98437500    -0.01562500    -1.01562500     0.98437500    -0.51562500     1.48437500     0.48437500    -1.51562500    -1.76562500     0.23437500     1.23437500    -0.76562500     0.73437500    -1.26562500    -0.26562500     1.73437500    -0.14062500     1.85937500     0.85937500    -1.14062500     1.35937500    -0.64062500
     0.01831564     1.00000000     1.00000000     1.00000000     0.36787944     0.36787944     0.36787944    20.08553692     1.00000000     1.00000000     0.13533528     7.38905610     0.13533528     7.38905610     1.00000000     1.00000000     0.17377394     0.17377394     0.17377394     9.48773584     0.06392786     3.49034296     3.49034296     3.49034296     0.17377394     9.48773584     1.28402542     1.28402542     1.28402542     1.28402542     0.17377394     9.48773584     0.47236655     0.47236655     0.06392786     3.49034296     0.17377394     9.48773584     1.28402542     1.28402542     0.06392786     3.49034296     3.49034296     3.49034296     0.47236655     0.47236655     0.47236655    25.79033992     0.06392786     3.49034296     0.47236655     0.47236655     1.28402542     1.28402542     0.17377394     9.48773584     0.47236655     0.47236655     0.47236655    25.79033992     0.06392786     3.49034296     3.49034296     3.49034296     0.26914635     0.26914635     0.26914635    14.69489273     0.03642500     1.98873747     1.98873747     1.98873747     0.09901341     5.40594892     0.73161563     0.73161563     1.98873747     1.98873747     0.26914635    14.69489273     0.03642500     1.98873747     1.98873747     1.98873747     0.26914635     0.26914635     0.26914635    14.69489273     0.73161563     0.73161563     0.09901341     5.40594892     0.26914635    14.69489273     1.98873747     1.98873747     0.09901341     5.40594892     0.73161563     0.73161563     0.73161563     0.73161563     0.09901341     5.40594892     0.26914635     0.26914635     0.26914635    14.69489273     0.09901341     5.40594892     5.40594892     5.40594892     0.93941306     0.93941306     0.12713573     6.94137582     0.12713573     6.94137582     0.93941306     0.93941306     0.04677062     2.55358946     2.55358946     2.55358946     0.93941306     0.93941306     0.93941306    51.29021535     1.00000000     1.00000000     0.13533528     7.38905610     0.13533528     7.38905610     1.00000000     1.00000000     0.03019738     1.64872127     1.64872127     1.64872127     0.60653066     0.60653066     0.60653066    33.11545196     0.13533528     7.38905610     1.00000000     1.00000000     1.00000000     1.00000000
