TITLE = " "
VARIABLES = "x" "y" "f"
ZONE T="hsample", I=   15, J=    1, K=    1, F=BLOCK
     0.00000000     1.91745660     0.69299534    -0.82738399    -1.84274877    -0.23799535    -1.64733504     0.60601263    -1.97647038     1.86972569     1.98048388     1.26959080     1.35558535     1.99051830     1.37226431
     0.00000000    -1.07863136    -0.55723041     1.62846067     0.53851507    -1.13917246    -1.13821460     1.63168488     1.63494732     1.62987950     0.98024085     1.97776854     1.21188080     0.31237552     0.51051555
     1.00000000     2.31364739     1.14541260     2.22793842     0.27138041     0.25229208     0.06169517     9.37172812     0.71068708    33.10238029    19.31196273    25.72232615    13.03275954    10.00308770     6.57174801
