TITLE = " "
VARIABLES = "x" "y" "f"
ZONE T="hsample", I=  155, J=    1, K=    1, F=BLOCK
     0.00000000     0.65371338    -1.03929571    -0.44304788     1.69420366     1.99521843     0.28071595    -1.86444901     0.72635306    -0.53848680    -0.58002323    -0.90759712    -0.07403931     0.58689401    -1.27374273     1.27148059    -1.45107919     1.53223666     0.81911100     1.97114037    -0.65289891    -0.57540485     0.78249603     0.51417786    -1.99181238    -0.06250808    -1.58794181    -0.17863623     1.21340390     0.64432662     1.12882172     1.43469879     0.18955767    -1.65158929     1.07171641     0.43379081     1.99034942    -1.07497413     0.21826363    -0.36988860    -0.72503229    -0.99582663    -0.43512071    -0.74593264    -0.67011139     0.05643114     0.04312606    -0.34512794     0.36269403     0.21697691     0.45968683    -1.19606512    -1.45819667    -1.72032279    -1.05762998     1.28848764     1.24615086     1.54392012     1.99343681     1.34600550     0.14642928     0.30725729    -1.94327750    -1.37744290    -0.42613101     1.98897367    -0.23659647     1.27333634    -1.49789180     0.23684714     1.21072175     0.81037879    -0.73574872    -1.99848266     0.92241179    -0.85562814    -0.23082042     0.47014060    -1.06928975    -0.31677855    -0.16207294    -0.39928917    -0.07390650     0.83992170    -0.02454378    -1.39057152    -1.58770567    -1.79957853    -1.63535262    -1.39962694     0.11295560     1.99628706     1.71909719    -1.99294573    -0.36694520     0.27569422    -1.33714537    -0.92741037     0.75123226    -1.38726745     1.75204898    -0.55947208     0.42682623     0.52902301    -0.47940306     1.10063343     1.86241711     0.00148894     1.19323772    -1.96130571     0.03855057     0.01323825     1.04928432    -0.67765920     1.51577581     0.30886628     0.57174739     0.86193233    -0.16343589     1.04570025     0.52747877    -1.98972422     0.25059401    -0.97625269     0.25356787    -1.99847053     0.56449050     0.88423185     0.39011256    -0.58683227    -1.26778011    -1.27871539    -1.81803979     0.77450050     0.19436664    -0.21013435    -0.00523054    -1.99719180    -1.08134743    -1.13605146     1.79043346    -0.02168956     1.60243115     0.39580348     1.57316397     0.29278008    -1.67895941     1.29978823     1.42657559     1.23693197    -0.37616701     0.43331198     0.05446084    -0.12803683     0.61458773
     0.00000000    -1.51914537    -0.27626105     1.88045578     0.82029089     0.01310120     0.77225115    -0.00849393    -0.36103332     0.72103695    -1.31741922    -1.89005022    -0.90976638     1.45753785     1.05516827    -0.74004614    -0.66233193    -0.33356785    -0.89138434     1.97328175     1.21241500     0.11106308     0.90092551     1.99979082    -0.98424385    -1.62612552     1.99641752     0.52667704    -1.98068277     0.29657119     0.36435067     0.21822645    -0.59123653    -1.81402377    -0.44913849    -0.10618613    -1.42901807     0.18407257     1.44388712    -0.42936788    -0.73775231    -0.84924222    -0.82552144    -1.02914089    -0.45136231    -1.99788616    -0.29172077    -1.98208041    -1.93245805     0.28543837     0.55307855     1.52481809     1.43461011     1.32266899     1.76694289     1.67958904     1.94042902     1.59037930     1.37382828     1.40438882    -1.32424652    -1.08040134    -1.99478013     0.08482266    -0.13296745    -1.99579398     1.04766092    -1.49683694     0.67968280     0.04519074     0.62808426     0.01774339     0.30695334     1.65150557    -0.17142875     0.72711896     0.03231733    -0.80418660     0.68896557     0.75060070    -0.24064502     0.29872014     0.34481648     0.56815757    -0.63193405    -1.30990844    -1.24168890    -1.25777128    -1.01959965    -1.51959274     1.99841166     0.41176595     0.44785718     0.32266480     1.43969127     1.12867866    -1.98817737     0.03051181    -1.97776614     0.36566333    -1.81574407     0.48257313     0.32844707     0.77454038    -0.62139025    -1.32990216    -0.50612530     0.69012231    -1.14277987    -0.53110971     0.17270333     1.00423876     1.24108807    -0.22671637    -1.12748541    -0.41613877     0.04433838    -0.57535301    -1.13986042    -0.04552121    -0.58408958     1.04385625     0.48095345    -1.50884394    -0.16475307     1.98508373    -1.13936780    -1.70842451     1.68949015     1.56619333     1.99504247    -0.22546284     1.83126888     1.24401799    -0.80519017     0.21359589     1.37904689    -0.13467686     1.14707255    -0.57345148     1.88961986     1.69583214    -0.12198758     0.07071927    -0.65738053    -1.57657591     0.23118144    -0.17311261     0.66844419     0.93229310    -1.64618134    -0.26512419    -0.44230946    -0.76742994    -0.20909352
     1.00000000     0.26772731     0.46372387     0.21130903     0.22010902     0.20076015     0.59695317     0.22340167     0.60316038     0.55252822     0.32551868     0.18532169     0.54550711     0.28827905     0.26768024     0.31602255     0.28214201     0.28909950     0.40559578     0.11390514     0.34527679     0.74436566     0.41254690     0.18998613     0.16846212     0.27410842     0.13320471     0.76376713     0.15636108     0.66528674     0.41545667     0.32195922     0.72176488     0.14248202     0.42547734     0.83371548     0.14278405     0.45673528     0.31923903     0.75690237     0.48310339     0.36861155     0.53452620     0.38232928     0.60504223     0.20021088     0.91999633     0.19810783     0.20551009     0.88608960     0.65910547     0.21027655     0.19288473     0.17516314     0.19081536     0.18244114     0.15827401     0.16911901     0.14574722     0.20902841     0.36035122     0.44215035     0.11421425     0.34428814     0.83384199     0.11186671     0.46434497     0.20568064     0.26985830     0.94505563     0.34960916     0.60348988     0.61141642     0.12951013     0.53184945     0.44232101     0.94847641     0.53540406     0.38196307     0.60105182     0.92235806     0.80085495     0.88939440     0.49303065     0.71431478     0.21507461     0.19752694     0.17180739     0.21213580     0.18982112     0.19974400     0.19399721     0.24062343     0.19700764     0.31178293     0.42554589     0.14835019     0.53733946     0.18261809     0.32698753     0.13574779     0.64687830     0.77515888     0.53197767     0.61882983     0.25125415     0.21165095     0.67738240     0.26811362     0.19497747     0.96963812     0.49784167     0.27462740     0.66197884     0.21887587     0.78828927     0.75252417     0.48216974     0.42992390     0.47719914     0.61751476     0.16532647     0.77272970     0.23642454     0.91622057     0.11192641     0.38214489     0.21273969     0.24959037     0.26334267     0.15180356     0.37230823     0.13056851     0.31771936     0.59308126     0.91761669     0.34461396     0.19972386     0.28693683     0.38175814     0.12859561     0.25797683     0.27912171     0.86083588     0.25595125     0.28000916     0.25824115     0.36772582     0.28719658     0.29418937     0.25964486     0.79488090     0.83430416     0.62292017     0.70351284
