TITLE = " "
VARIABLES = "x" "y" "f"
ZONE T="hsample", I=  155, J=    1, K=    1, F=BLOCK
     0.00000000    -0.07299412     0.18784103     1.04411169    -1.61484117     1.98484403     1.20549457     1.99728068     1.04076087     0.05708552    -1.97623766    -1.97682948     1.99348284    -1.15419268    -1.96298146     0.55649676    -1.33237712    -1.97393902    -0.28669906     1.21046681     1.98445331     1.99685059    -1.49024912    -0.32006420    -1.38524937     0.76480200     1.30527115    -0.76470699    -1.99877548     0.77665923    -0.66914481     0.53612089     1.57870798    -1.66342217     0.05371411     1.65135525    -0.87935195     1.63075959     0.37929431    -0.61172908    -1.83894493     0.89917968     1.74214578     0.60964067     1.65567202     1.62526232    -1.07399153    -0.76203022    -1.37623030    -1.06099188     1.37532859     1.39789409    -1.99601698     1.53333924     1.98368345    -1.95299062    -0.24843980    -0.99883347     0.18665948     1.81709141    -1.50199738    -0.99556720     0.01702745     0.62676844    -0.71933316     0.45364707     0.97884697     0.37391109    -0.38632250    -1.14614401    -0.80206232    -1.61805198    -0.89922864    -0.65788762     0.56639430     1.99979935    -1.35892020    -1.36796032     1.24132185    -1.16016634    -1.72683346    -0.30988229     1.08792963     1.99985626    -1.20259787    -1.99805277    -1.97687705     0.12062145     0.74356894    -1.79433855    -1.98195581    -0.13648098     0.69789427    -1.39242295     1.65054909     0.21260035    -1.77978524     0.93551380    -0.65727612    -0.25338952     1.77849657     1.75264454    -1.85955568     1.54957326    -0.66112151     1.15469085    -0.37763647     1.23079104    -0.27856817     0.66949299     0.79066297     0.20972096     1.78108810     0.97723299     0.41495402     1.94384166     0.35642042     0.27610339     1.07331669    -0.22920034     0.39735822     1.23854785    -0.09744093     1.78986123    -0.74715293     1.46531295     0.97178240     1.55820599     1.24969867     1.99796348     1.20422009     1.37486334     1.79087238     1.36241890     1.98803384    -1.36080098     0.18907233     0.54961034    -1.74899801     1.54241372     1.80709996     0.70266895    -0.03655608    -0.33756959    -0.58776117    -0.48935525    -0.60598224    -1.11710128    -1.03466820    -0.10136640     1.41308682     1.56797104     0.45856519     1.57757996     1.24745973
     0.00000000     1.36446424     0.55051051    -1.56985629    -0.57467452     0.73853277     0.01982804     1.80489528     1.27772164    -1.99160038     1.99837921    -1.99155970    -1.95311114     1.99428316     1.18156718     1.99007535    -1.77984107    -0.02237253     1.97574880     1.98233611    -0.53474856     0.06694884     0.49131648    -1.52609898     1.06877291    -1.99739568    -1.99674224    -1.99922823    -0.99018682    -1.13130078     0.57947454    -0.18524265     1.59387375     1.64495180    -0.82338776    -0.83138793    -0.33297238    -1.25603015    -1.71114629    -0.02756503    -1.65586255     0.53817746    -1.69217826     0.27226575     0.20550701     1.98562626    -1.45832300     1.56894901    -1.13822078     1.38390663     1.18471667     0.86449521     0.58284856     0.57220292    -1.21811960    -1.35825803    -0.97213730     0.02903328    -1.31938378     1.35908828    -1.47118749     1.75002976    -0.49392918     1.65224171     1.98342974     1.15140459    -0.68377771     0.87286016     0.99589615     0.56036499    -0.89336651    -1.99745887     0.92340098    -0.67005534    -0.77569290     1.15266249     0.17469138    -0.33525475    -0.66603727    -1.98185626     1.97047141     0.32725132    -0.32455806    -1.65975431    -0.67828924     1.70478957     1.46832298     1.01452148     0.87483372    -0.37113516    -0.63998769     1.75908257    -1.41804021     1.84954695     1.17088049     1.89750955    -1.08605868     0.04595520    -1.39417781    -0.37321718    -0.32582497    -1.95972822     0.17541931    -0.45449875     1.19178205    -1.01697882     1.42718215     0.48578403     0.67971136    -0.45162973    -1.76538827     0.16248967     1.83658825     1.81150723    -1.10757441     1.99873566    -0.47932677     1.40266315     0.79396028    -0.64955620    -1.99448555     1.52654697    -1.78516578    -0.58127586     0.26869969    -1.58680090     1.58352845    -1.76886351    -1.63617012     0.45843273    -1.29785487    -1.14210388     0.68248678    -1.40706910    -0.94201217     0.79070963    -0.17393322     0.53631459     0.96415449    -0.09134359    -1.03738866     1.37158382     0.36354722     0.00070967    -0.33434898     1.80057419     0.87086477     1.09743113    -1.21205808     0.89573686     1.76915193    -1.99663757    -1.49731460     1.80972715     1.81330445
     5.00000000     6.86709081     5.33834607     8.55461799     7.93796281     9.48503647     6.45361030    12.24677708     7.71575578     8.96973082    12.89903476    12.87416482    12.78861698    10.30932604    10.24939721     9.27008855     9.94306304     8.89693578     8.98577966    10.39488634     9.22401095     8.99189441     7.46223434     7.43141920     8.06119136     9.57451161    10.69071235     9.58169032     9.97557336     6.88304101     5.78354552     5.32174044    10.03275240    10.47283975     5.68085262     8.41818004     5.88413046     9.23698860     8.07188580     5.37497230    11.12359925     6.09815908    10.89853920     5.44579038     7.78348298    11.58418926     8.28016378     8.04229107     8.18955640     8.04090135     8.29508231     7.70145984     9.32379621     7.67854540    10.41881540    10.65903723     6.00677327     5.99851122     6.77561532    10.14894214     9.42038876     9.05375822     5.24425597     8.12274136     9.45143372     6.53152820     6.42569336     5.90169436     6.14105421     6.62765503     6.44140769    11.60793418     6.66128152     5.88179028     5.92250198    10.32782826     6.87718119     6.98371120     6.98448558    10.27374017    11.86471136     5.20312046     6.28892882    11.75420944     6.90631793    11.89852237    11.06401524     6.04380336     6.31822881     8.35739215     9.33773309     8.11299854     7.49789446    10.35966559     9.09527341     8.64574141     9.34715895     5.87729796     7.37574367     5.20349732     8.26921194    11.91229759     8.48871925     7.60774641     6.85742612     7.36755689     7.17945820     6.75083271     5.53960776     5.65219027     8.74174366     5.07038577    11.54533123     9.23654277     6.39890790    12.77346461     5.35678967     7.04369699     6.78238164     5.47445605     9.13586617     8.86434644     8.19631158     8.54148484     5.63043702     9.66507913     8.45192340    10.55688400     9.23879943     9.20201863     8.13457330     8.19465049     8.67301207     8.83602871     9.83966545     7.47700103     5.06600111     5.58970487     8.98858790     7.38738373     9.34178552     7.37498583     5.13350293     5.11395373     5.45725244     8.48153599     6.12561992     7.45227034     7.53962307     5.81261967    10.12671293    11.44509478     7.45223304    10.76387092     9.84422882
