TITLE = " "
VARIABLES = "x" "y" "f"
ZONE T="hsample", I=   75, J=    1, K=    1, F=BLOCK
     0.00000000    -0.50356355    -1.39258602     0.80673048     1.71922168     0.00000000     0.92000000     0.00000000    -0.08000000     1.68000000    -2.00000000    -0.64000000     0.28000000     0.56000000    -1.16000000     0.64000000     1.12000000    -0.80000000     1.52000000     1.12000000    -0.52000000    -0.04000000    -0.28000000     0.04000000    -2.00000000     0.48000000    -1.20000000     1.04000000    -0.96000000    -0.60000000    -1.64000000     1.68000000     1.56000000     0.48000000    -0.76000000    -1.92000000    -1.72000000    -1.84000000     0.64000000     1.00000000    -0.16000000    -0.52000000    -1.20000000    -1.20000000     0.24000000     2.00000000     1.28000000     2.00000000     2.00000000     1.28000000    -0.56000000    -0.88000000    -1.52000000    -1.20000000     1.36000000    -2.00000000    -2.00000000    -1.68000000    -0.20000000    -0.32000000    -0.72000000    -0.44000000    -0.28000000    -1.88000000     0.12000000     1.28000000     0.76000000     1.24000000     2.00000000     0.28000000     2.00000000     1.68000000     2.00000000    -0.48000000     0.00000000
     0.00000000     0.95885897    -0.45727442    -1.41112105     1.28853466    -2.00000000     0.20000000     2.00000000    -1.04000000    -0.36000000     0.00000000    -0.36000000     0.68000000    -0.48000000     1.28000000     1.20000000     0.80000000    -1.20000000     0.32000000    -0.72000000     1.48000000     1.28000000    -1.52000000    -0.52000000     2.00000000     0.00000000     0.48000000     2.00000000    -0.72000000     0.12000000    -1.24000000     1.92000000    -1.32000000    -0.92000000     0.60000000     0.92000000     0.60000000     1.28000000     0.56000000    -2.00000000     0.68000000    -0.76000000     1.92000000    -1.84000000     1.60000000    -2.00000000     1.40000000     2.00000000     1.08000000     1.08000000    -1.96000000    -0.08000000     0.16000000    -1.44000000    -1.76000000    -2.00000000    -0.60000000    -2.00000000    -0.28000000     1.80000000     2.00000000    -1.12000000     0.32000000    -1.68000000    -1.36000000     0.12000000    -0.08000000    -0.16000000     0.44000000     0.20000000    -0.48000000     0.00000000    -0.76000000     0.56000000     0.44000000
     1.00000000     0.46019608     0.31762208     0.27456863     0.17806126     0.20000000     0.53011026     0.20000000     0.47892720     0.25303644     0.20000000     0.64968815     0.64901350     0.64766839     0.25100402     0.35092645     0.34549475     0.32467532     0.29301453     0.36064628     0.28895053     0.37878788     0.29508971     0.78616352     0.11111111     0.81274382     0.37447573     0.16443041     0.40983607     0.72759022     0.19130701     0.13317707     0.19319938     0.48151002     0.51610239     0.18074031     0.23156725     0.16600266     0.58031569     0.16666667     0.67204301     0.54112554     0.16322800     0.17165614     0.27642636     0.11111111     0.21746694     0.11111111     0.16216917     0.26282590     0.19397890     0.56154537     0.29976019     0.22155264     0.16814635     0.11111111     0.18656716     0.12783800     0.89413448     0.23028740     0.18121195     0.40849673     0.84688347     0.13592866     0.34916201     0.37696019     0.63131313     0.39013733     0.19254467     0.89413448     0.19118997     0.26161574     0.17928858     0.64766839     0.83780161
