TITLE = " "
VARIABLES = "x" "y" "f"
ZONE T="hsample", I=    5, J=    1, K=    1, F=BLOCK
     0.00000000     2.00000000     2.00000000    -2.00000000    -2.00000000
     0.00000000     2.00000000    -2.00000000     2.00000000    -2.00000000
     1.01000000    -0.65889658     1.01000000     1.01000000    -0.65889658
