TITLE = " "
VARIABLES = "x" "y" "f"
ZONE T="hsample", I=  155, J=    1, K=    1, F=BLOCK
     0.00000000    -0.66724428     1.62538490    -1.15599220     0.23906767    -1.97584860    -1.02279962    -0.08998493    -1.54327323     1.98046875     1.98883778     1.04527826     0.90328724     1.99243641     1.98443836    -1.99726387     0.94292835     1.05461065     0.84613327     1.01557203     1.28911487     1.99567078    -0.47195324     1.99849588     0.40912944     1.54033821     1.59449391     1.60308117    -1.99168904    -0.41762393     0.60477300    -0.25850684     1.31751292    -0.35596183    -0.19534582    -0.53490496     0.12944877     0.57708880    -1.66825558     0.05345167     1.71533103     1.36392561     1.36796487     1.79926969     1.74756277    -1.99662116    -1.81962743    -1.99687448    -1.26851228    -1.56737322     0.72646134     1.17255959     0.75539069    -1.54982620     0.73630281    -0.98270939    -0.57617478    -1.29966005    -0.29329473    -1.57049885     1.11515546     1.90659380     1.98771811     0.53511386    -0.73181265     1.71609534     1.82399212     1.73573199     1.89002813     1.85350637     1.54418915    -0.21358169     1.51177470    -0.47007303    -1.22460207     0.30624601    -0.16206048    -1.96960687    -1.75742475     0.83966141     1.12131701     0.63244789     1.97681874     1.39958397     1.39029003     0.45596057     0.46334608     0.00342365    -0.30531573     0.43667410    -1.73818188    -1.95490965     1.75620109    -1.52503251     1.71578121     0.86645913    -0.16669313    -0.45992254    -0.16793260     1.45173159     0.80968261    -1.82260064     1.18620002    -0.87257737     1.17574571     1.88823740    -0.63444186     0.35484976     0.10376836    -0.82848253    -1.02779068     1.78893270    -1.22699398    -1.71278761    -1.52146790     1.20491785     1.53410770     1.04437276     1.45124908     0.73681184    -1.92637665    -0.85270210     0.31127060    -0.82809004     0.49239651     0.09887573     0.07883960     0.45304545     1.66043586     1.08805556    -1.79027560     1.98319798     0.55488658     1.97329368     0.83675741    -1.99768028    -1.63723570    -1.17222972     0.96118791    -1.15204543    -1.17891781     1.64154660    -1.99211650     1.98507763     0.74192228     1.63914772     1.68122309     1.68221639    -1.77537164     0.36218268     0.25011950    -0.07652644    -1.86991990    -1.99946741     0.71106921
     0.00000000     0.01039346     1.68294964    -0.66542889    -1.86330323     1.84287194     1.80138708     1.61065993     0.98598332     0.37365930    -1.15257569     1.00884890     1.65503902    -0.49054471    -1.81089489    -1.93263551    -0.46095649    -0.98025441     0.06111305    -1.53028069     1.99197345     1.99680557     1.99723279     1.38479165     0.93740096     1.04346437     0.59558164     0.15046349    -0.71971958     0.96236982     1.99665177    -1.28827098     1.44028075    -0.90943428    -1.66163629     1.42848492     1.99697381     1.32160070    -0.16203499     0.66311478    -1.98118319    -0.49423777     0.35554149    -0.82577841    -1.58606692     0.59534499     1.35145938     0.27679675     0.62133239     0.52554478    -1.36118560    -1.97610626    -0.97263544     1.99973062    -1.65128155    -1.99867874    -1.99932315    -1.98176570    -1.99193188    -1.99245625     1.80166460     1.75161585     0.85920342     0.26774751     1.20973736     1.99579471     1.11958460     1.37740844     0.61934466    -0.27794549    -1.80008275    -0.34765166    -0.85292375    -0.36421296    -1.01781292     1.62719297     1.90240250    -1.52141914    -1.62960833     1.90564542     1.23694085     0.59723091     0.00629993    -1.97655720    -1.49082314    -1.46317096    -1.04083545    -1.99527666     1.28181393    -0.21180104     1.60398726     1.62439319    -0.03536595     1.56545678     0.36094138     1.21471532     0.55296673     0.52563841     0.32435984     1.81344473    -1.99643998     0.76724869     0.86571388     1.99668335     0.40673312     1.55311354     1.74951110    -0.79999840    -0.81164852     1.70944749    -0.14442689     0.77961471    -0.14229808    -0.52758047    -0.55445928    -0.12894040     1.97928489     1.53897607     1.56718859     1.75332193     1.08349247    -0.86899811     1.42315281    -1.29190020     1.84968883     0.92510696     1.12402823     0.73917813     0.91699119     0.71976790     1.93723325    -0.70527680    -0.72613968     1.19844492    -0.73267098     1.31330668     0.12038647     0.11033755     0.21757286     1.92819031     1.44925526     1.19620800     0.85916754    -1.98843468     0.85468998    -0.15834183    -0.62163734    -1.04501731    -1.27266319    -1.98030939    -0.52628416    -0.56706541    -1.80863837     0.02403690    -0.28384269
     1.00000000     0.51848156    27.33955454     0.16179566     0.19706226     0.87548553     2.17839302     4.57531249     0.57275919    10.52894420     2.30772477     7.80002668    12.91418422     4.49017511     1.18951240     0.01964565     1.61926421     1.07719048     2.47749090     0.59767469    26.60471129    54.18891382     4.59642834    29.46748705     3.84406497    13.24741688     8.93588823     5.77503699     0.06644315     1.72417020    13.48293438     0.21293298    15.76502178     0.28212752     0.15614314     2.44386293     8.38481702     6.67713832     0.16036696     2.04739130     0.76655245     2.38616587     5.60414420     2.64717036     1.17526758     0.24628247     0.62614829     0.17905223     0.52352008     0.35280900     0.53008163     0.44773817     0.80473299     1.56816229     0.40052514     0.05072238     0.07611591     0.03757465     0.10175100     0.02835491    18.48242085    38.79182986    17.23464387     2.23191815     1.61272406    40.93109532    18.98362411    22.49156682    12.29721471     4.83345185     0.77422434     0.57050500     1.93257044     0.43418438     0.10620172     6.91324389     5.69929233     0.03046959     0.03380884    15.56939025    10.57251659     3.42013084     7.26536595     0.56159562     0.90435517     0.36523643     0.56130583     0.13644236     2.65514216     1.25216377     0.87441987     0.71855253     5.58919428     1.04125245     7.97827797     8.01387525     1.47148721     1.06792325     1.16932568    26.18472740     0.30520934     0.34806990     7.78278232     3.07746429     4.86700537    31.22911810     3.04977934     0.64072903     0.49268751     2.41322726     0.30967944    13.04685884     0.25428692     0.10641933     0.12544007     2.93285823    33.56193691    13.24140714    20.45930240    12.06288964     0.43046719     0.17876196     5.66566006     0.12003280    10.40290755     2.78426154     3.32965215     3.29439842    13.16322631     6.09716225     1.15830491     3.58917072     0.84260828    23.84891208     1.10969637     0.50440609     0.21940209     0.34580088     3.25034379     2.17307862     1.31040658    17.07737690     0.32208205     0.99664858     4.93628122     4.39648732     2.88517555     1.89117643     0.04745208     0.19826977     0.75868799     0.52540186     0.02525937     0.13870159     1.53299988
