TITLE = " "
VARIABLES = "x" "y" "f"
ZONE T="hsample", I=  150, J=    1, K=    1, F=BLOCK
    -1.94666667    -1.92000000    -1.89333333    -1.86666667    -1.84000000    -1.81333333    -1.78666667    -1.76000000    -1.73333333    -1.70666667    -1.68000000    -1.65333333    -1.62666667    -1.60000000    -1.57333333    -1.54666667    -1.52000000    -1.49333333    -1.46666667    -1.44000000    -1.41333333    -1.38666667    -1.36000000    -1.33333333    -1.30666667    -1.28000000    -1.25333333    -1.22666667    -1.20000000    -1.17333333    -1.14666667    -1.12000000    -1.09333333    -1.06666667    -1.04000000    -1.01333333    -0.98666667    -0.96000000    -0.93333333    -0.90666667    -0.88000000    -0.85333333    -0.82666667    -0.80000000    -0.77333333    -0.74666667    -0.72000000    -0.69333333    -0.66666667    -0.64000000    -0.61333333    -0.58666667    -0.56000000    -0.53333333    -0.50666667    -0.48000000    -0.45333333    -0.42666667    -0.40000000    -0.37333333    -0.34666667    -0.32000000    -0.29333333    -0.26666667    -0.24000000    -0.21333333    -0.18666667    -0.16000000    -0.13333333    -0.10666667    -0.08000000    -0.05333333    -0.02666667     0.00000000     0.02666667     0.05333333     0.08000000     0.10666667     0.13333333     0.16000000     0.18666667     0.21333333     0.24000000     0.26666667     0.29333333     0.32000000     0.34666667     0.37333333     0.40000000     0.42666667     0.45333333     0.48000000     0.50666667     0.53333333     0.56000000     0.58666667     0.61333333     0.64000000     0.66666667     0.69333333     0.72000000     0.74666667     0.77333333     0.80000000     0.82666667     0.85333333     0.88000000     0.90666667     0.93333333     0.96000000     0.98666667     1.01333333     1.04000000     1.06666667     1.09333333     1.12000000     1.14666667     1.17333333     1.20000000     1.22666667     1.25333333     1.28000000     1.30666667     1.33333333     1.36000000     1.38666667     1.41333333     1.44000000     1.46666667     1.49333333     1.52000000     1.54666667     1.57333333     1.60000000     1.62666667     1.65333333     1.68000000     1.70666667     1.73333333     1.76000000     1.78666667     1.81333333     1.84000000     1.86666667     1.89333333     1.92000000     1.94666667     1.97333333     2.00000000    -1.97333333
     0.00000000    -1.00000000     1.00000000    -1.50000000     0.50000000    -0.50000000     1.50000000    -1.75000000     0.25000000    -0.75000000     1.25000000    -1.25000000     0.75000000    -0.25000000     1.75000000    -1.87500000     0.12500000    -0.87500000     1.12500000    -1.37500000     0.62500000    -0.37500000     1.62500000    -1.62500000     0.37500000    -0.62500000     1.37500000    -1.12500000     0.87500000    -0.12500000     1.87500000    -1.93750000     0.06250000    -0.93750000     1.06250000    -1.43750000     0.56250000    -0.43750000     1.56250000    -1.68750000     0.31250000    -0.68750000     1.31250000    -1.18750000     0.81250000    -0.18750000     1.81250000    -1.81250000     0.18750000    -0.81250000     1.18750000    -1.31250000     0.68750000    -0.31250000     1.68750000    -1.56250000     0.43750000    -0.56250000     1.43750000    -1.06250000     0.93750000    -0.06250000     1.93750000    -1.96875000     0.03125000    -0.96875000     1.03125000    -1.46875000     0.53125000    -0.46875000     1.53125000    -1.71875000     0.28125000    -0.71875000     1.28125000    -1.21875000     0.78125000    -0.21875000     1.78125000    -1.84375000     0.15625000    -0.84375000     1.15625000    -1.34375000     0.65625000    -0.34375000     1.65625000    -1.59375000     0.40625000    -0.59375000     1.40625000    -1.09375000     0.90625000    -0.09375000     1.90625000    -1.90625000     0.09375000    -0.90625000     1.09375000    -1.40625000     0.59375000    -0.40625000     1.59375000    -1.65625000     0.34375000    -0.65625000     1.34375000    -1.15625000     0.84375000    -0.15625000     1.84375000    -1.78125000     0.21875000    -0.78125000     1.21875000    -1.28125000     0.71875000    -0.28125000     1.71875000    -1.53125000     0.46875000    -0.53125000     1.46875000    -1.03125000     0.96875000    -0.03125000     1.96875000    -1.98437500     0.01562500    -0.98437500     1.01562500    -1.48437500     0.51562500    -0.48437500     1.51562500    -1.73437500     0.26562500    -0.73437500     1.26562500    -1.23437500     0.76562500    -0.23437500     1.76562500    -1.85937500     0.14062500    -0.85937500     1.14062500    -1.35937500     0.64062500    -0.35937500
     0.20878958     0.17585819     0.17906029     0.14849035     0.21572181     0.22035276     0.15522701     0.13966285     0.24588484     0.22345315     0.18570447     0.18882136     0.23761184     0.27605245     0.15295483     0.14476383     0.30065920     0.25027095     0.22641153     0.20144131     0.29514753     0.32642728     0.18214190     0.18455623     0.35112325     0.33013924     0.22414140     0.26522834     0.31195165     0.41800147     0.17151278     0.16643626     0.45469343     0.33148981     0.31147736     0.24430461     0.43669698     0.47325937     0.23188312     0.21414649     0.53417198     0.45437320     0.29359660     0.32785206     0.44283044     0.62787750     0.20817910     0.20982539     0.67585802     0.48314868     0.35889452     0.32606916     0.55983009     0.72353628     0.24364291     0.27234552     0.71586196     0.66735596     0.30994237     0.44086190     0.50022910     0.90390884     0.20661367     0.20213913     0.94466478     0.50403539     0.47657150     0.31418614     0.76922820     0.81227884     0.29840711     0.25272015     0.92608656     0.65936896     0.37845635     0.40189760     0.61852422     0.94408261     0.23862764     0.22598798     0.94405661     0.56901427     0.41762127     0.34761145     0.65932247     0.81929333     0.25884326     0.27178220     0.75469473     0.65164261     0.31416407     0.41208411     0.48123191     0.77325556     0.20212682     0.20088523     0.72203895     0.44825178     0.37868266     0.28916358     0.53449095     0.58053461     0.24165776     0.22814569     0.55508009     0.46321133     0.27932461     0.31656003     0.38714296     0.51387090     0.18611836     0.19231894     0.46960448     0.36388389     0.27168528     0.25667341     0.35317643     0.40719718     0.18538768     0.20620948     0.35834960     0.34239228     0.20556656     0.26033163     0.26398622     0.34201820     0.14548655     0.14262600     0.31732379     0.23814975     0.23031423     0.17871354     0.26729056     0.26353106     0.16826055     0.14833345     0.25687417     0.22461725     0.17837232     0.17789537     0.20927685     0.23024978     0.13327946     0.12591731     0.21717948     0.18433433     0.16418915     0.14832515     0.18482920     0.19907649
