TITLE = " "
VARIABLES = "x" "y" "f"
ZONE T="hsample", I=    5, J=    1, K=    1, F=BLOCK
     0.00000000     1.02094377    -1.99798390    -0.11536645     0.03604188
     0.00000000    -0.24410646     0.30271877     1.79443614    -1.91171078
     0.00000000     0.00000000     0.00000000     0.00000000     0.00000000
