TITLE = " "
VARIABLES = "x" "y" "f"
ZONE T="hsample", I=   10, J=    1, K=    1, F=BLOCK
     0.00000000    -1.62652662     1.96701830     0.67660254    -0.34114285     1.99930769     1.97361845     1.97489822    -0.61221422    -1.97151795
     0.00000000    -0.58780430     0.77312118    -1.15226669     1.85375493    -1.99777724    -1.09448490     1.99203271    -1.99029171     1.91737796
     1.00000000     0.10922657    15.48914546     0.62147217     4.53857044     1.00153163     2.40881169    52.82216714     0.07408769     0.94729949
