TITLE = " "
VARIABLES = "x" "y" "f"
ZONE T="hsample", I=    5, J=    1, K=    1, F=BLOCK
    -0.90215708    -0.90215708    -0.90215708    -0.90215708    -0.90215708
     1.51798736     1.51798736     1.51798736     1.51798736     1.51798736
     1.00000000   746.17179230  1025.10034300   174.24494410    53.19387851
