TITLE = " "
VARIABLES = "x" "y" "f"
ZONE T="hsample", I=   10, J=    1, K=    1, F=BLOCK
    -2.00000000     0.00000000    -1.00000000     1.00000000    -1.50000000     0.50000000    -0.50000000     1.50000000    -1.75000000     0.25000000
    -2.00000000     0.00000000     1.00000000    -1.00000000     0.50000000    -1.50000000    -0.50000000     1.50000000     1.75000000    -0.25000000
     0.11111111     1.00000000     0.33333333     0.33333333     0.28571429     0.28571429     0.66666667     0.18181818     0.14035088     0.88888889
