TITLE = " "
VARIABLES = "x" "y" "f"
ZONE T="hsample", I=   15, J=    1, K=    1, F=BLOCK
     0.00000000     1.86181731     0.56345931    -1.93941577    -0.76076962     1.91528754     0.76544651     1.97809590     0.86477024    -1.15452939     1.38239592    -1.98695215     1.99975500     0.00090822    -1.66644495
     0.00000000    -1.25503398    -0.35618420     0.61217267     1.78604148     1.91841583     1.96042290     0.71097542     0.81974573    -1.99749011     1.42971333    -1.98861443    -0.05388159     1.99908154     1.57574456
     1.00000000     1.83452083     1.23032100     0.26520741     2.78785326    46.23344136    15.26968391    14.71800131     5.38984150     0.04276567    16.64498964     0.01876866     6.99974278     7.38898044     0.91329130
