TITLE = " "
VARIABLES = "x" "y" "f"
ZONE T="hsample", I=   15, J=    1, K=    1, F=BLOCK
     0.00000000    -0.70451441     1.22628414     0.15746878    -1.42224556     1.92294833     0.85526251    -1.93426374    -0.06715686    -1.02049191     1.99860832     1.14676286    -1.99246530     0.16643577    -1.61549813
     0.00000000     0.31893662    -0.63227367     1.37634812    -1.71717282    -1.99392942    -1.97057355     1.96843166    -1.95992549     1.86928426     1.97393279     1.98319132    -0.73061444    -1.13398103    -0.08671847
     1.00000000     0.92658128     0.82870274     0.03697100    -0.99999764     0.99748190     0.43989817     0.99941633    -0.44061714     0.66088995    -0.67417556    -0.99993227    -0.91369431     0.56732271    -0.13104230
