TITLE = " "
VARIABLES = "x" "y" "f"
ZONE T="hsample", I=   25, J=    1, K=    1, F=BLOCK
    -1.68000000    -1.52000000    -1.36000000    -1.20000000    -1.04000000    -0.88000000    -0.72000000    -0.56000000    -0.40000000    -0.24000000    -0.08000000     0.08000000     0.24000000     0.40000000     0.56000000     0.72000000     0.88000000     1.04000000     1.20000000     1.36000000     1.52000000     1.68000000     1.84000000     2.00000000    -1.84000000
     0.00000000    -1.00000000     1.00000000    -1.50000000     0.50000000    -0.50000000     1.50000000    -1.75000000     0.25000000    -0.75000000     1.25000000    -1.25000000     0.75000000    -0.25000000     1.75000000    -1.87500000     0.12500000    -0.87500000     1.12500000    -1.37500000     0.62500000    -0.37500000     1.62500000    -1.62500000     0.37500000
     0.18637398     0.08045961     0.69767633     0.06720551     0.58274825     0.25157855     2.18147227     0.09926125     0.86070798     0.37157669     3.22199264     0.31036694     2.69123447     1.16183424    10.07442466     0.31505754     2.73190727     1.17939312    10.22668009     0.98511194     8.54204124     3.68768909    31.97645977     1.45499142     0.23107799
