TITLE = " "
VARIABLES = "x" "y" "f"
ZONE T="hsample", I=   27, J=    1, K=    1, F=BLOCK
     0.00000000     2.00000000     2.00000000    -2.00000000    -2.00000000    -1.09806988     1.36629022     0.02236169    -1.89041960    -1.24036829     0.83208899     1.99523706    -0.54984518    -1.99964187    -0.25878211    -0.45795028     1.19161844     0.65730179     1.92591331    -0.76277702     1.44427702     1.41439492     0.22856241     1.20288772    -1.54691923    -1.01407294     0.88912538
     0.00000000     2.00000000    -2.00000000     2.00000000    -2.00000000    -1.08175065     0.59827481    -1.98329076     0.23308931     1.20320450    -1.29810868    -0.65187691    -0.50357241    -1.09799246    -1.25400696     0.56236792    -0.42297885     1.99285709     0.41471743     1.96752512    -0.99249860    -1.90554226     1.32817217     1.66599908    -0.13070202     0.16369808    -1.99573929
     5.00000000    21.00000000     5.00000000     5.00000000   -11.00000000     2.41014622     7.76466301    -2.80114851    -1.74310270     4.83355708     3.38869026    12.66596984     4.70606696    -4.31942910     3.01070195     5.08181255     6.61636838    13.19857517    12.21481352    12.17278931     7.03500540     0.91031744     7.35489084    11.36457367     1.29605278     3.96157089    -2.24608760
