TITLE = " "
VARIABLES = "x" "y" "f"
ZONE T="hsample", I=  150, J=    1, K=    1, F=BLOCK
    -2.00000000     0.00000000    -1.00000000     1.00000000    -1.50000000     0.50000000    -0.50000000     1.50000000    -1.75000000     0.25000000    -0.75000000     1.25000000    -1.25000000     0.75000000    -0.25000000     1.75000000    -1.87500000     0.12500000    -0.87500000     1.12500000    -1.37500000     0.62500000    -0.37500000     1.62500000    -1.62500000     0.37500000    -0.62500000     1.37500000    -1.12500000     0.87500000    -0.12500000     1.87500000    -1.93750000     0.06250000    -0.93750000     1.06250000    -1.43750000     0.56250000    -0.43750000     1.56250000    -1.68750000     0.31250000    -0.68750000     1.31250000    -1.18750000     0.81250000    -0.18750000     1.81250000    -1.81250000     0.18750000    -0.81250000     1.18750000    -1.31250000     0.68750000    -0.31250000     1.68750000    -1.56250000     0.43750000    -0.56250000     1.43750000    -1.06250000     0.93750000    -0.06250000     1.93750000    -1.96875000     0.03125000    -0.96875000     1.03125000    -1.46875000     0.53125000    -0.46875000     1.53125000    -1.71875000     0.28125000    -0.71875000     1.28125000    -1.21875000     0.78125000    -0.21875000     1.78125000    -1.84375000     0.15625000    -0.84375000     1.15625000    -1.34375000     0.65625000    -0.34375000     1.65625000    -1.59375000     0.40625000    -0.59375000     1.40625000    -1.09375000     0.90625000    -0.09375000     1.90625000    -1.90625000     0.09375000    -0.90625000     1.09375000    -1.40625000     0.59375000    -0.40625000     1.59375000    -1.65625000     0.34375000    -0.65625000     1.34375000    -1.15625000     0.84375000    -0.15625000     1.84375000    -1.78125000     0.21875000    -0.78125000     1.21875000    -1.28125000     0.71875000    -0.28125000     1.71875000    -1.53125000     0.46875000    -0.53125000     1.46875000    -1.03125000     0.96875000    -0.03125000     1.96875000    -1.98437500     0.01562500    -0.98437500     1.01562500    -1.48437500     0.51562500    -0.48437500     1.51562500    -1.73437500     0.26562500    -0.73437500     1.26562500    -1.23437500     0.76562500    -0.23437500     1.76562500    -1.85937500     0.14062500    -0.85937500     1.14062500    -1.35937500     0.64062500
    -2.00000000     0.00000000     1.00000000    -1.00000000     0.50000000    -1.50000000    -0.50000000     1.50000000     1.75000000    -0.25000000    -1.25000000     0.75000000    -0.75000000     1.25000000     0.25000000    -1.75000000     0.12500000    -1.87500000    -0.87500000     1.12500000    -1.37500000     0.62500000     1.62500000    -0.37500000    -0.12500000     1.87500000     0.87500000    -1.12500000     1.37500000    -0.62500000    -1.62500000     0.37500000     1.18750000    -0.81250000    -1.81250000     0.18750000    -0.31250000     1.68750000     0.68750000    -1.31250000    -1.06250000     0.93750000     1.93750000    -0.06250000     0.43750000    -1.56250000    -0.56250000     1.43750000    -0.93750000     1.06250000     0.06250000    -1.93750000     1.56250000    -0.43750000    -1.43750000     0.56250000     0.81250000    -1.18750000    -0.18750000     1.81250000    -1.68750000     0.31250000     1.31250000    -0.68750000     0.65625000    -1.34375000    -0.34375000     1.65625000    -1.84375000     0.15625000     1.15625000    -0.84375000    -0.59375000     1.40625000     0.40625000    -1.59375000     1.90625000    -0.09375000    -1.09375000     0.90625000    -1.46875000     0.53125000     1.53125000    -0.46875000     0.03125000    -1.96875000    -0.96875000     1.03125000     1.28125000    -0.71875000    -1.71875000     0.28125000    -0.21875000     1.78125000     0.78125000    -1.21875000    -0.40625000     1.59375000     0.59375000    -1.40625000     1.09375000    -0.90625000    -1.90625000     0.09375000     0.34375000    -1.65625000    -0.65625000     1.34375000    -1.15625000     0.84375000     1.84375000    -0.15625000     1.71875000    -0.28125000    -1.28125000     0.71875000    -0.78125000     1.21875000     0.21875000    -1.78125000    -1.53125000     0.46875000     1.46875000    -0.53125000     0.96875000    -1.03125000    -0.03125000     1.96875000     1.98437500    -0.01562500    -1.01562500     0.98437500    -0.51562500     1.48437500     0.48437500    -1.51562500    -1.76562500     0.23437500     1.23437500    -0.76562500     0.73437500    -1.26562500    -0.26562500     1.73437500    -0.14062500     1.85937500     0.85937500    -1.14062500     1.35937500    -0.64062500
  3609.00000000     1.00000000     4.00000000   400.00000000   312.50000000   306.50000000    58.50000000    56.50000000   179.82812500    10.32812500   331.57812500    66.07812500   539.82812500    47.32812500     5.07812500  2316.57812500  1157.89941400   358.21191410   272.68066410     1.99316406  1072.07128900     5.63378906   222.22753910   909.79003910   771.75878910   301.19628910    26.10253906   909.54003910     5.71191406   193.39941410   270.43066410   987.11816410   667.27301030    67.53082275   728.12066650    88.62847900   571.86090090   188.18121340    26.67730713  1409.49762000  1536.15484600    71.00640869   217.42437740   318.77593990    99.39117432   494.05523680    37.12945557   342.04351810  1790.99273700   106.20367430    39.00445557  1120.71539300     7.91265869    82.93609619   237.39312740   522.66656490   271.89996340   190.45465090    27.83355713     6.63824463   797.46832280    32.08551025   172.37066650  1973.48785400  1045.47739000   181.76742940   168.28647230    35.13901138  1606.87607200     1.80673599    89.86484146  1016.92050600  1266.11667300   176.64889910     4.17184830  1046.82907500    22.63840103    49.62375259   131.81076430   514.35861590  2377.98904800    26.40018082    70.53055191   326.06668470   320.34769060   575.83694840   119.94388200   293.49563980   165.18252940    78.46084976   431.56387710   287.90469740   204.61734390    92.16128922    60.86587906  2355.53482400  1640.63785200   252.03140640     8.81119156   677.32974620    83.89834976   158.62002940   431.00137710   598.78555680   582.77444840   315.28519060   120.88138200    21.45462418   626.23611830     1.76248550   332.33523940  1264.98660700   219.17648700    11.44113541   360.98849870    58.81564713   592.22507100    49.38034439     3.59177017  2242.87204400  1508.72665800     6.48349381   143.12851330   723.01034930     5.02328873   387.98324970     1.16733170   364.68979260   390.47159410     0.99417710   397.80905750     0.22226548   745.46503280   148.71027210     8.44116807  1453.96765700  2286.28044700     3.22295213    51.32005906   560.54381390    67.29292893   342.97371510    11.79933763   191.87074880  1302.66474700   339.15119770     4.91773820   596.18543840    29.43235612   110.59458760
