TITLE = " "
VARIABLES = "x" "y" "f"
ZONE T="hsample", I=  155, J=    1, K=    1, F=BLOCK
     0.00000000     1.19234015    -1.33902684    -0.02413280     0.40008015    -1.98013836     1.87550253    -1.99794368    -0.91621652     0.06458325    -1.98624975    -1.21353827    -1.99653759     1.99582259     1.96391633     1.99625800     1.90901287     1.43799363     1.54441936    -0.39482301    -1.75936661    -1.61345838    -1.83970372    -1.78560641    -1.76357183    -0.77526239    -0.16302421    -0.79568446    -0.76390749     0.87990243     0.68653880     0.67343440     0.64643249     0.63996922     0.65273501     1.99101451     1.99650079     1.63072800     0.69207226    -0.64660215     1.29146334    -1.20269933    -1.19203300    -1.17917335     1.32040646    -0.13797930    -0.12944709    -0.50116751     0.15706794    -0.13091146     1.73293324    -1.02151175     1.26700358    -1.50632133    -1.45620118    -1.90777164    -1.91085239     1.28490206    -1.89423617     1.32795198    -1.48400586    -0.44518747    -1.24096465    -1.50256489    -0.43755057     1.05708137     1.05122055     0.78821358     1.05587788     0.76458068     0.97706043     0.97508557    -0.93356526     0.99551664    -0.93520269     1.99420521    -1.97852564    -0.32741866    -0.31978465    -0.32375591    -0.52029698    -0.51854956    -0.52560164    -0.53562757    -0.52412616     1.61474781    -0.68133951     1.61868920     1.21181279     1.62495241     1.64574468     1.65173888     0.52229688     0.47379277     0.51777928    -1.99542736    -1.98762776     0.24567423    -1.99928768     0.24130858     1.66602042     1.84445889     1.83727629     1.99793759     0.49163959    -0.22192918    -1.32802464     1.04655880     1.52138416     0.36412039     1.78241257    -1.75332706     1.88798949     1.42697814     1.41573735    -1.37863954     0.10989148     0.10908869     1.92037317     0.10793686    -0.02713789    -0.58236505    -0.30466637     0.19972333    -0.05206683    -1.08594348    -1.09617717    -1.06692894    -1.66945487    -1.68929478     0.45398440     0.44810705     1.83207300     1.27661689     1.72998821    -1.57861903     0.94885544     0.28889866    -1.85043598    -1.97751866     1.17170613     1.70593942    -0.99390856     1.70910670     0.90473601    -1.66343940    -1.66810415    -1.67067255    -1.66772073     1.12761415    -1.60356743    -1.59758591    -1.60037892    -1.60263858    -1.59676931
     0.00000000     1.14702928     0.12117603    -0.39445466    -1.59946410     1.99564514    -1.99595782     1.01602795     1.98213659     1.93019512    -1.98659195    -1.98713397    -1.19050778     0.16248485    -0.64904794     1.93263213     1.34128203     1.71553483    -1.49861640     1.36195441    -0.70542085    -1.54579756    -0.18593577     0.41022861     1.49820299    -0.71863258    -1.98665507    -1.20659009    -0.21146854    -0.83622326     1.90504708     1.46066951     1.03590548     0.60237567     0.18280013    -1.64079462    -1.16508153     1.06754177    -1.96775255     1.70975646    -1.99045845     1.75801517     1.37912907     0.99449775    -0.58635432     1.65973450     1.08208381    -1.98737375    -1.91762050     0.75943966    -1.00682460    -1.71803959     1.99846862     1.85206252     1.53035189    -1.68847883     0.71688814    -1.64180512     0.13428850    -1.27449499    -1.22412384    -1.36537911    -1.44572438    -0.93017462    -1.68657569    -1.84046654    -1.40440771    -0.08618897    -1.07230586    -0.40588219     0.97474486     0.67234758    -0.45556516     1.32904446     0.00935753     1.08277456    -0.41220357    -0.84286452    -1.12425442    -0.53383810     0.39407294     0.14778743     0.64389267     1.99928359     1.08246590    -0.76311862    -1.74261032    -0.48397380    -0.81962708    -0.24415397    -1.70857613    -1.96572945     1.74042768     1.99345006     1.26618585     1.69710452     1.47546473    -0.66188184    -1.47057720     0.02799327     1.82505762    -0.21774189     1.67786896    -0.41542475    -0.62128173     1.98432185     1.96305299     1.68879691     0.76339432     0.79136349     1.99692119    -1.99710735    -1.46519695    -1.83776021    -0.33743830    -1.71684036    -0.92426534    -0.22443341     0.77541316     0.18256339    -1.54459275    -1.53285443    -1.52821637    -1.54645700    -1.31853100    -0.71875425    -0.15429028     1.22006968    -0.09055053     0.11209760     0.38572689     0.97345542    -1.78496651     1.37563660     0.43212588    -1.92373976    -1.67187322     1.88204240     1.17147140    -0.73760842     1.84634620     0.75525192     1.80354432     1.33325983     1.86617657     1.98083499     1.75135853     1.32732882     1.11641820     0.04250219     0.80894309     0.63522357     0.36988599    -0.27106294    -0.45716000
     1.00000000     7.58002406   284.96820560    16.65427519   309.95386130   379.56030080  3040.59897800   894.49707410   134.24452930   371.83189620  3527.51912100  1201.92765200  2688.77061000  1460.86046400  2031.34652700   422.23280120   531.22936440    12.60272270  1508.72357900   147.40582260  1452.21586700  1728.28803400  1282.87207000   779.57780980   267.48612420   177.30295690   406.66291840   341.67550650    66.31755703   259.36984030   205.65114310   101.54288980    38.32118194     3.84738724     6.03827505  3142.50995100  2654.37299600   253.75890390   598.73701350   169.55040260  1338.42719000    14.55694655     4.97984645    20.42659840   542.91229840   270.48340300   114.76786750   503.36080810   377.95990360    56.38016368  1608.45274000   766.68900570    15.52959955    23.66566100    40.86298526  2847.28969700   869.58372410  1084.32015300  1201.27916700   923.02245990  1180.19008400   246.56399330   896.47290130  1022.51808600   354.76478810   874.91314360   629.74777340    50.09617856   478.38048880    98.15767155     0.04091826     7.75374272   179.86057380    11.42381737    78.61016685   838.55825800  1880.96313700    92.02486535   152.17613910    42.54047723     3.83317038     3.77266441    15.84305270   295.58497040    67.57020517  1136.42455500   489.83846480   963.94416960   523.59295090   832.49630670  1951.45154500  2203.76094400   215.62305340   313.20254650    99.85099517   530.92410160   621.58712300    52.73173189  2998.60114400     0.66703762    90.80123693  1310.98696100   288.92472710  1943.31887000    74.73381395   375.94242780     9.39587609    35.22776865   240.89877690    43.80343002   139.86949020  2579.35176900  2530.57799600  1500.99070200   548.55240100  1314.27938300    88.46582851     6.37908723   849.06609070     3.71690295   239.85924940   352.94358370   264.47856420   252.28993650   175.67487590   364.60199230   188.23899230     4.94021232   835.20148620   758.87992560     3.52464884    60.00423607  2644.15136900     6.53391294   656.26840890  1956.55863100   661.62382930   323.99465510   515.56453800  2169.43123100    22.44506324   464.89111040    70.51070251   252.60922860   109.76179660    68.90427088   113.45878960   221.40879380   284.29735590   151.06320590   317.41405090   374.25826610   486.95324540   813.05734010   910.84722820
