TITLE = " "
VARIABLES = "x" "y" "f"
ZONE T="hsample", I=   15, J=    1, K=    1, F=BLOCK
     0.00000000     0.05801108    -1.00773653    -0.02783107     1.24321984     1.99939393    -1.99075011    -1.95816141    -0.71722431     0.39182871    -1.94855761     1.99159328    -1.05183952    -1.99916911     1.99384777
     0.00000000    -0.20411019    -1.47998516     0.88946208     1.18912044     0.17293947    -0.38491515     1.81662237     1.81835942    -1.31031821    -1.99496003     1.92383516     0.35159909    -1.18852150    -1.13524059
     1.00000000     0.95691376     0.23776186     0.55806145     0.25255057     0.19890664     0.19564702     0.12293299     0.20743266     0.34837579     0.11393749     0.11537238     0.44843285     0.15602424     0.15963730
