TITLE = " "
VARIABLES = "x" "y" "f"
ZONE T="lsample", I=    1, J=    1, K=    1, F=BLOCK
    -1.72338912
     0.89716630
     5.00000000
