TITLE = " "
VARIABLES = "x" "y" "f"
ZONE T="hsample", I=   15, J=    1, K=    1, F=BLOCK
     0.00000000     0.51399019    -1.36689031     1.67448131    -0.99255577    -1.87543584    -0.72160340     1.66369126    -1.33171563     0.49460418    -1.98284692    -1.98373417    -1.97312801     1.14448241    -0.36211249
     0.00000000    -0.88490614     0.38255808    -1.34631679     1.45377470    -1.99868970    -1.97952463     1.99020521    -0.99381725     1.96090658     1.90624019     1.13899276    -0.05366054     1.25542411     1.99773512
     1.00000000   132.27745980   226.37156080  1722.87462900    25.92959910  3050.83780700   628.08197330    60.91652320   771.22284100   294.81482320   419.13878400   790.78086120  1566.63726400     0.31698392   350.27851540
