TITLE = " "
VARIABLES = "x" "y" "f"
ZONE T="hsample", I=  150, J=    1, K=    1, F=BLOCK
     0.00000000     1.73182546    -1.20952358     0.53711041    -0.78527737    -1.99334193    -1.99194942    -1.11028606     1.06441250    -1.99259937     1.96600035     1.30594451     1.99271505     0.81824952     1.97233280     1.48727480    -1.44272107     1.45824259    -1.66712820     1.49902367    -1.99844381     1.98962644     0.32144517    -0.23117381     0.75499135    -1.57576039     1.53119233    -1.54999928    -0.89986609    -1.13270215     1.94948132     1.77534480    -1.60808596    -1.68843593    -1.98180990     1.99991124    -1.96828010     0.15993368    -1.79926353     0.01216652    -1.80543137     1.60197742    -1.17017554    -0.51013982    -0.05415136     1.83659474    -0.49793229     1.76627026     1.99103055     0.76387616    -1.99427623     1.14828083    -0.04907656     1.69500595     1.47474690     1.78112672    -0.40902436    -1.99091496    -1.09693559     1.68206241    -1.69613214     1.15309978     1.95025668    -0.64150732     0.81283478     0.56171245    -1.86126387     0.80822744    -0.06406319     0.13059275    -1.82300966     1.99311394    -1.26425455     1.72818108    -1.45906137    -1.90263965     1.07557281     0.47020826     0.04724301    -0.74638376     0.50554977    -1.79209238    -1.45783806     1.00439834     1.74715778     1.91688303    -1.88944741     0.37937771    -0.40492288     1.33646406     0.90688841     1.99301535    -1.11688976    -1.54733687    -1.97546647    -1.86737725    -1.76650686     1.42528792     1.97865933     1.47650621    -1.75975895    -0.33582415    -0.60742713    -0.79614598    -1.98755363     0.05290771    -0.25343111    -0.58039027     0.33389919    -0.26888154     0.35945929    -1.26498809    -0.80751376    -0.82688433     1.12141182    -1.78732171    -0.24653753     0.28771176     0.53886998     0.62849317    -1.31652308    -0.81225078     0.96804158    -0.56761350     1.85394345     1.99239048     1.90204504     1.98718424     1.84390389    -0.94211081     0.06838790     0.09534442    -0.29985227     1.56996861    -1.07985550    -1.98800924     0.71731709     1.11663890     0.70692192     1.18008651     0.68288551    -1.82508646     0.85174138    -0.67864840    -1.99869941    -1.84743801    -0.91488737    -0.51402050     0.26730086     1.85039224
     0.00000000    -1.15672289    -0.04155443     0.59473322     1.68131246    -1.96484181    -1.05626608    -1.98371243    -1.70519164     0.37712779    -1.98328989    -0.60340910     1.24961785    -1.08006788     0.57692245     1.99807409    -1.10190897     1.44592467     1.22779896     0.87788906     1.81069795    -0.61917948     1.99011171     1.97528004     1.80447963     1.98782593    -1.99635804    -1.99128222    -1.25191550     1.98885245    -1.51795210    -0.09039718     0.51253769     0.09767642     0.96997769     1.99665568    -0.26631829    -1.99822300    -1.61956207    -1.43309634    -0.68484852    -1.65121650     0.92972887     0.37264047     0.88758613     0.96901523    -0.35772821     1.46901278     0.14994883    -0.44747652    -1.37700243     1.98452319     1.70501195    -0.62240793    -0.06703516     0.37987995    -1.99843100     1.42500663     1.54596227     0.66531077     1.71490775     1.03836656     1.68359570     1.02379185     0.34639787     1.03538595     0.59280011     1.10384352    -0.58932713    -0.75478445     1.99769002    -1.19169259    -0.76163735     1.97787614    -0.61243799     1.20461277    -1.97301390    -1.39774655     1.99125602     1.97857859     1.36578567    -1.26356779    -1.57771221     1.69439896    -1.94646826    -0.97441820     0.19074594    -0.23041709    -1.32016636     0.71243814     1.98768349     0.81009345     0.49258765     0.87734511    -0.01992228     1.58860184    -0.33583111     1.71423832    -1.73780380    -1.11709550    -1.99856427     1.18724166    -0.82001604    -1.66740508    -1.70339832     1.25789247     0.68630862     1.72360619     0.58889720     0.40412785     0.26470655     1.33784387    -0.18964575     1.37462312    -0.19513415     0.94673031    -0.76442638     1.62457946    -0.93682797    -1.99253737     1.82434978     0.78918623     1.32686739     0.70865675     0.70176487    -0.24805091    -0.40541234     1.51520587     1.83104841     1.18338989    -1.76632243     0.38897015    -1.68675369    -0.43434120    -0.48528929     1.98658527     0.07845772     1.40344354    -0.08906060     0.26603553     0.68614700    -0.09886665     0.71198950    -1.36376299    -0.48960613     1.84344411     0.23173562    -0.05885875     1.19853751    -1.63510378
     1.00000000  1727.72121200   231.23454000     9.59290527   116.53558470  3535.24600200  2533.13853800  1039.00679700   805.52255060  1300.15373400  3421.36668200   533.19560240   741.53036300   306.14310320  1098.65777500     4.81328133  1019.34055800    46.52437909   247.83421880   187.71520380   485.57437550  2096.59810900   356.45609320   370.86219290   152.45107840    31.15633711  1884.63038200  1937.03275700   428.65965670    54.36918865  2829.47077200  1051.81727800   436.70201350   765.20538290   883.62668950   402.19643230  1723.13902100   410.28307600  2366.79463300   206.39475620  1563.72399900  1779.13361400    24.03288912     3.54384971    79.37246215   578.65274120    38.92678366   273.06751370  1455.83537500   106.34841370  2875.64733500    44.37416569   290.98641000  1222.30227100   502.84303210   780.43389870   471.02482790   653.46350210    16.14109573   468.76484080   142.28341810     8.50740862   450.30288760    40.18080153     9.91363729    52.01266688   832.73982770    20.34188695    36.34829203    60.32940065   183.71059460  2667.87808400   562.07595340   102.28461550   757.51848970   591.85305090   979.61481340   262.34573700   396.52944030   205.11320260   123.50001670  2010.50407300  1377.26484200    47.00241613  2499.58690900  2162.02943800  1150.29248400    14.39855528   222.23766670   115.39595780   135.78637630  1000.82106200    61.46184293   236.58938720  1547.36776500   368.65053950  1202.30815800    10.24291888  3196.48171100  1087.35747400  2603.84060800   117.23167230   143.95205980   532.80290790  3205.43447500   158.42288980    40.26960260   194.80611070    23.23558060    12.62121310     2.24619732    12.01297572    74.11707176    51.06977261   211.04807110   513.02451920    69.65053714   238.22251080   150.81679160   570.17323740     6.19650554     4.95959215    15.19253319    17.39344622   748.93849870  1779.85949100  1619.41760800   593.26183240   246.86729440    12.52257032   314.51176500    15.24925232   317.34349500   840.82766010   277.03046450   395.28475730    19.09701708     2.46474242    34.75434449   126.94812090     4.93239779  1184.33888000     0.04013514   335.63462920  2019.98142600   254.46701300    40.30357903    12.73005671   127.56953020  2560.12714600
