TITLE = " "
VARIABLES = "x" "y" "f"
ZONE T="hsample", I=  150, J=    1, K=    1, F=BLOCK
    -2.00000000     0.00000000     1.00000000    -1.00000000    -0.50000000     1.50000000     0.50000000    -1.50000000    -1.25000000     0.75000000     1.75000000    -0.25000000    -0.75000000     1.25000000     0.25000000    -1.75000000    -1.62500000     0.37500000     1.37500000    -0.62500000    -0.12500000     1.87500000     0.87500000    -1.12500000    -1.37500000     0.62500000     1.62500000    -0.37500000    -0.87500000     1.12500000     0.12500000    -1.87500000    -1.81250000     0.18750000     1.18750000    -0.81250000    -0.31250000     1.68750000     0.68750000    -1.31250000    -1.06250000     0.93750000     1.93750000    -0.06250000    -0.56250000     1.43750000     0.43750000    -1.56250000    -1.68750000     0.31250000     1.31250000    -0.68750000    -0.18750000     1.81250000     0.81250000    -1.18750000    -1.43750000     0.56250000     1.56250000    -0.43750000    -0.93750000     1.06250000     0.06250000    -1.93750000    -1.90625000     0.09375000     1.09375000    -0.90625000    -0.40625000     1.59375000     0.59375000    -1.40625000    -1.15625000     0.84375000     1.84375000    -0.15625000    -0.65625000     1.34375000     0.34375000    -1.65625000    -1.53125000     0.46875000     1.46875000    -0.53125000    -0.03125000     1.96875000     0.96875000    -1.03125000    -1.28125000     0.71875000     1.71875000    -0.28125000    -0.78125000     1.21875000     0.21875000    -1.78125000    -1.84375000     0.15625000     1.15625000    -0.84375000    -0.34375000     1.65625000     0.65625000    -1.34375000    -1.09375000     0.90625000     1.90625000    -0.09375000    -0.59375000     1.40625000     0.40625000    -1.59375000    -1.71875000     0.28125000     1.28125000    -0.71875000    -0.21875000     1.78125000     0.78125000    -1.21875000    -1.46875000     0.53125000     1.53125000    -0.46875000    -0.96875000     1.03125000     0.03125000    -1.96875000    -1.95312500     0.04687500     1.04687500    -0.95312500    -0.45312500     1.54687500     0.54687500    -1.45312500    -1.20312500     0.79687500     1.79687500    -0.20312500    -0.70312500     1.29687500     0.29687500    -1.70312500    -1.57812500     0.42187500     1.42187500    -0.57812500    -0.07812500     1.92187500
    -2.00000000     0.00000000    -1.00000000     1.00000000    -0.50000000     1.50000000    -1.50000000     0.50000000    -0.75000000     1.25000000    -1.75000000     0.25000000    -1.25000000     0.75000000    -0.25000000     1.75000000    -0.12500000     1.87500000    -1.12500000     0.87500000    -1.62500000     0.37500000    -0.62500000     1.37500000    -1.37500000     0.62500000    -0.37500000     1.62500000    -0.87500000     1.12500000    -1.87500000     0.12500000    -0.93750000     1.06250000    -1.93750000     0.06250000    -1.43750000     0.56250000    -0.43750000     1.56250000    -1.68750000     0.31250000    -0.68750000     1.31250000    -0.18750000     1.81250000    -1.18750000     0.81250000    -1.06250000     0.93750000    -0.06250000     1.93750000    -0.56250000     1.43750000    -1.56250000     0.43750000    -0.31250000     1.68750000    -1.31250000     0.68750000    -1.81250000     0.18750000    -0.81250000     1.18750000    -0.40625000     1.59375000    -1.40625000     0.59375000    -1.90625000     0.09375000    -0.90625000     1.09375000    -1.15625000     0.84375000    -0.15625000     1.84375000    -0.65625000     1.34375000    -1.65625000     0.34375000    -1.53125000     0.46875000    -0.53125000     1.46875000    -0.03125000     1.96875000    -1.03125000     0.96875000    -0.78125000     1.21875000    -1.78125000     0.21875000    -1.28125000     0.71875000    -0.28125000     1.71875000    -1.46875000     0.53125000    -0.46875000     1.53125000    -0.96875000     1.03125000    -1.96875000     0.03125000    -0.21875000     1.78125000    -1.21875000     0.78125000    -1.71875000     0.28125000    -0.71875000     1.28125000    -0.59375000     1.40625000    -1.59375000     0.40625000    -1.09375000     0.90625000    -0.09375000     1.90625000    -1.84375000     0.15625000    -0.84375000     1.15625000    -0.34375000     1.65625000    -1.34375000     0.65625000    -0.67187500     1.32812500    -1.67187500     0.32812500    -1.17187500     0.82812500    -0.17187500     1.82812500    -1.92187500     0.07812500    -0.92187500     1.07812500    -0.42187500     1.57812500    -1.42187500     0.57812500    -1.29687500     0.70312500    -0.29687500     1.70312500    -0.79687500     1.20312500
     0.11111111     1.00000000     0.33333333     0.33333333     0.66666667     0.18181818     0.28571429     0.28571429     0.32000000     0.32000000     0.14035088     0.88888889     0.32000000     0.32000000     0.88888889     0.14035088     0.27350427     0.21476510     0.24060150     0.46376812     0.27350427     0.21476510     0.46376812     0.24060150     0.20915033     0.56140351     0.26446281     0.26446281     0.39506173     0.28318584     0.22068966     0.22068966     0.19364599     0.46209386     0.16223067     0.60093897     0.31604938     0.24015009     0.60093897     0.19364599     0.20094192     0.50592885     0.19133034     0.36676218     0.73988439     0.15744157     0.38438438     0.24380952     0.20094192     0.50592885     0.36676218     0.19133034     0.73988439     0.15744157     0.24380952     0.38438438     0.31604938     0.24015009     0.19364599     0.60093897     0.19364599     0.46209386     0.60093897     0.16223067     0.20838421     0.28178316     0.23958821     0.46001797     0.20838421     0.28178316     0.46001797     0.23958821     0.27219564     0.41257051     0.22604857     0.22604857     0.53725079     0.21685726     0.25897825     0.25897825     0.17576382     0.69470828     0.29074390     0.29074390     0.99805068     0.11426021     0.33311646     0.33311646     0.30750751     0.33311646     0.14031241     0.88734835     0.30750751     0.33311646     0.88734835     0.14031241     0.15251713     0.76532138     0.39113827     0.24650939     0.48622982     0.20804551     0.18844314     0.35629784     0.44560487     0.20023465     0.16342164     0.61761158     0.23219955     0.32715655     0.59465738     0.19298907     0.23219955     0.32715655     0.19298907     0.59465738     0.44560487     0.20023465     0.61761158     0.16342164     0.15251713     0.76532138     0.24650939     0.39113827     0.48622982     0.20804551     0.35629784     0.18844314     0.18989337     0.36151809     0.20445243     0.49600387     0.38780534     0.24518137     0.75266446     0.15495196     0.16283692     0.60934246     0.19690414     0.45380013     0.59795620     0.19333522     0.32155754     0.23613513     0.19333522     0.59795620     0.32155754     0.23613513     0.60934246     0.16283692
