TITLE = " "
VARIABLES = "x" "y" "f"
ZONE T="lsample", I=    1, J=    1, K=    1, F=BLOCK
    -2.00000000
    -2.00000000
     0.11111111
