TITLE = " "
VARIABLES = "x" "y" "f"
ZONE T="hsample", I=  155, J=    1, K=    1, F=BLOCK
     0.00000000     1.52970521     0.75540025    -0.98801245    -1.52529092    -1.99344619    -1.11450922    -0.22564892     1.69651387    -1.88923876     0.33078944     0.78091621     0.01834873     0.65153235     0.96436321     1.99557425     1.99466120     1.45105774     1.50552243    -0.62480667     1.98666808     1.98932170     1.99658533     1.59534371     1.99398464    -1.98765737    -0.99500859    -1.19633658    -1.63375727    -0.76493579    -1.61493564     1.32932564    -1.59583853    -1.25442089    -1.98909856     0.52001436     0.52618520     0.58056550     1.15246147    -1.56582853     0.15978325     1.71102328     0.14248716     0.40458624    -0.15098387     0.22182764     1.99586668     1.15770719     0.51959999     0.84109998     1.82562584     1.22702384    -0.21401782     0.38248960     1.19214867     1.96305140     0.94148492    -1.99760969     0.87801642     1.02435078     1.99850670     1.71059418    -1.65542367    -0.34168089    -0.17842694    -0.60018275     1.50526953     1.36245901     1.50289655     0.46505738    -1.02808161     1.85924337     1.60654411     1.86425881     1.85401345    -1.53453558    -1.85780607    -1.76621089    -1.61606297     1.35347662    -0.34724479     1.92433173     0.83208811     1.83812303    -1.98030652    -0.59444236    -0.85621999    -1.98802287     1.29502698    -0.34460349     1.78698833    -0.04619513     1.92646568     0.00052639     0.84157686     1.08364343     1.07110958     1.07468923     1.07949921     1.32667191     0.61231124     1.76757577     1.78169086    -0.02102795     0.57390108    -1.52204157    -0.69733887    -1.31988351    -1.74276118    -0.17832419     1.52893769     1.68911375    -1.78420562     0.98359132    -1.83400631     1.91903726     0.10916740     1.05988286     1.26900990     0.27693121     1.83930744     1.44285568     1.63337066     1.59584612    -0.70510972    -0.56501104    -0.89097971    -0.57996974    -0.88720430    -1.18941848    -1.99756977    -1.99552558    -1.98099332     1.21837342    -1.77469012    -1.94210354     1.38445545     1.12344069     0.99398513    -1.07512875     0.35307056    -0.47791369     1.81881463    -1.40348105    -0.85787631     0.68146893     1.25939226     1.24174656     0.73351686     0.46567952     0.34563413     0.76884339     1.39850025     0.50053238     0.38255949
     0.00000000    -1.56448761     1.65679672    -0.21758647     0.02427019     1.70192298     1.49609471     1.37569164     0.61787638    -1.99700197    -1.99666838     0.30527945    -1.44532249     0.92786923    -0.29382450     1.97780169     1.49065284     1.99528349     1.50153035     1.99830035    -0.66580351    -0.17183456    -1.24366199    -0.38463658    -1.70803360    -0.67148493    -1.97219152     0.71032784     0.85853265     0.67274096    -1.43040251     1.15301362    -1.05867234    -1.46007789     0.36228149    -0.79086912    -0.45731276    -1.13574039     0.45091445     1.99663448     0.63308282     1.79082854     0.94981269     0.43746904     0.66143511     1.99461572     0.60189526     1.87484629     1.96165317    -1.69033712     1.14784029    -1.78859754     1.88526139     1.39742551    -0.61916077    -1.99164157     1.42996621     1.17401031     1.97161740     0.93321399     0.94297526    -1.90202276     1.29964055    -1.99234286    -0.64190068    -1.74642603     0.42392561     1.71721332     0.98222076    -1.69583022     1.83556260    -1.49780528     1.24664626     0.12596199    -1.00168376    -0.35470742     0.57689114    -0.33856187     0.55323588    -0.94338356     1.08667861     1.71353843     1.06496737     0.78849830     1.98465105     1.69334849     0.26811976    -1.72591568     0.19996496     0.24578139     1.99014456     1.19054892     0.34734149     0.36787336     0.77031017    -1.39654645    -1.60077970    -0.91562919    -1.13317921    -0.04885672    -1.99044707    -0.25060947    -0.76321238     1.60071235     1.53253737    -1.83912017    -0.79978371    -1.80013615    -1.82340031    -1.78914445     1.82875525     1.56851292     1.86669321    -1.99236132     1.58968374     1.31093182     1.80660587     1.58542904     0.62618083     0.80889866    -0.47311651    -1.86436160    -0.99789488     0.09087789     1.29330094    -0.41430865     1.64890219     0.10543179     1.44360535     1.93388187    -0.25288553    -0.43611429    -0.02521393    -1.99802652     0.37459364    -1.23620783     1.32672542     1.19907399     1.76222698    -1.65434362     1.73410546     0.77541067     1.44503332     1.61884296    -1.27141371     1.85452835     1.58158266     1.40503168     0.50486936     1.06066203    -0.27895786    -1.90210990    -1.69884182     0.19181735    -0.94618705
     1.00000000     0.96581555    11.15844896     0.29951256     0.22290252     0.74712467     1.46460487     3.15832783    10.11875113     0.02052235     0.18902444     2.96298041     0.24003422     4.85205134     1.95529037    53.16370535    32.63267343    31.38535020    20.22769660     3.94912358     3.74665924     6.15636889     2.12319778     3.35585685     1.33102729     0.07000824     0.05144716     0.61507644     0.46060031     0.91192746     0.04758022    11.96923088     0.07033323     0.06623814     0.19655420     0.76272726     1.07129955     0.57397187     4.96978171     1.53849698     2.20972057    33.17683254     2.98112232     2.32113266     1.66604281     9.17464182    13.43363906    20.75015003    11.95623814     0.42774112    19.55959821     0.57031086     5.31877792     5.92935305     1.77355835     0.97181466    10.71292680     0.43884922    17.28145255     7.08205963    18.94389958     0.82577860     0.70062456     0.09690504     0.44028738     0.09569313     6.88396738    21.75127402    12.00252819     0.29206677     2.24225262     1.43539214    17.34302443     7.31714918     2.34510386     0.15118621     0.27778303     0.12187337     0.34547773     1.50695802     2.09474917    38.01079346     6.66623663    13.82697411     1.00435399     3.00088168     0.55538138     0.02438131     4.45930061     0.90590385    43.69059635     3.14041134     9.71632220     1.44541973     5.01226059     0.73132083     0.58879917     1.17240834     0.94773533     3.58879034     0.25204797     4.55837545     2.76897850     4.85342379     8.21891705     0.03469493     0.22377312     0.04415630     0.02826414     0.13981032    28.72284916    25.98778620     1.08598519     0.36466724     0.78323495    25.27887550     6.79218895    14.08783844     6.65381734     2.96189679     3.92038918     0.65605811     1.88792016     5.40175563     1.80072834     0.37556651     2.13383853     0.62217247     1.74438323     2.10531140     0.10535125     0.08789258     0.13449783     0.45856506     0.24657318     0.04165594    15.04703376    10.20129507    15.74010805     0.06525371     8.06211568     1.34648431    26.14996755     1.24031069     0.11892170    12.62901927    17.13246016    14.10851119     3.45004136     4.60131231     1.06894938     0.32197979     0.74056523     1.99840573     0.56914072
