TITLE = " "
VARIABLES = "x" "y" "f"
ZONE T="hsample", I=  155, J=    1, K=    1, F=BLOCK
     0.00000000    -0.85439886    -1.88160977     0.78463561     1.37063209     1.91818668     1.13873739     0.34231961    -1.95255461     1.98619674    -0.15304196    -1.93966169     0.53976727     1.97646854     1.99363016     1.98259390    -0.39023655     1.40141948    -0.50130066    -0.61573385    -1.99222788    -1.97477358    -1.99880389    -1.41863584    -1.58002349     1.45009606     0.49021140     0.70879438     1.24620282     0.72944829    -0.02187026    -0.04266751    -0.73841238     0.92322166    -0.80108309    -1.07137477     1.63044364    -0.68339714    -1.04944844    -1.42327169     0.61418477     1.62376410     1.20441297     1.73719428     1.08149337    -1.99741300    -1.49638906    -1.98740980    -1.95524404    -1.72377283     1.78906196     1.85902511     1.79063239    -0.13118346     1.67342230     0.11352387     0.37275039    -0.14325637     0.78397781     0.43997455     0.34745330     1.52073409     0.39289118     1.03557529    -0.92182892     1.97942464    -1.95007266     1.99417294    -1.68857746     1.30600628     0.95374547     1.31954499    -1.81090320     0.11984701     1.99432630     1.88012071     0.25829491     0.70737659     0.12634670     1.90461053    -1.27538319    -1.22375764    -1.05380923    -1.47699244    -0.34501010     1.99608478    -0.37406856    -0.37174678    -0.40507569    -0.38374514     1.75087323    -0.84623688     0.93485272     0.84643053     1.99069068     1.65587488     0.23535832    -0.23106487    -0.73480845     0.02598309     1.28772441     1.58613928     1.57323919     0.87800642     1.79105241    -1.29036548    -1.08248596     0.65751888     0.56887933    -1.39805734     1.11066244     1.52193171     1.08691762     1.55335301     1.97967270     1.48771916    -1.99207306    -1.17715686     0.69175163    -1.82175525     1.76930194     1.08171705     1.97741131     0.92570013     0.90639965     1.10017595     1.91753245     1.65780903     1.31745228     1.18049754     1.35942152    -1.53230348    -0.10710406     0.05769225    -1.99040323    -1.08681974     0.15887027     0.45856032     1.56153475    -0.85691677     1.45445749    -0.60106252    -0.57399867    -0.87468080    -0.59091923     1.99517292     1.33731276    -1.76871352    -1.83605923     0.57723724     0.72334223     0.16988425    -0.17809062     0.47987374    -0.72688568
     0.00000000    -0.78654420     0.55156128     1.09042421    -1.24035158     1.99744478     1.99961264     1.99342978    -1.99974787     1.22358660    -1.97120179     1.94326065    -1.92993064    -1.99586034     0.54627447    -0.31769466     1.91348705    -0.29912793     1.34795478     0.77789623    -0.85525584    -0.37779697    -1.34069343     1.40263070    -1.09244357     1.07422579     0.29301657    -0.06662646     1.48947174    -0.49205780     0.96363189     1.36974695     0.18721212    -1.99009255     1.68936117    -1.99398361     1.69510927    -1.97381020    -1.65176589    -1.99029764     1.74484915    -1.97641325     0.61476416     0.20013211     0.23565312     1.28591407     1.98629403     0.96310568     1.61081353     1.15338416    -0.79319287    -1.09015645     0.83030657    -1.12270950    -0.50648302     0.46540207     0.94225214     0.56730175     1.98237069     1.25973936    -0.26800979     1.99446028    -0.92161580    -0.95147267     1.99985671     1.72737308     0.08945420    -1.61450396     0.07999217    -1.84509692     1.78434776     1.83601626    -1.75173945     1.83107131    -0.59410578     1.50965731    -1.96730591    -1.71834426    -1.35981082    -0.05167266    -0.27493391    -0.05590129    -0.22225641    -0.16338576     0.33786000     1.00275596    -0.61102004    -0.37504858    -0.82819153    -1.58207483     1.86002823     1.17547016     0.68299566     0.48473928     0.17900019     1.40056861     1.60992891     1.65885146     1.87789422     1.62670502     0.85333565     0.45776811     0.84688059     1.33848345    -1.63848955     1.79571684     1.84350869     0.86237760     1.94866566     1.07952078    -1.99738672    -1.02876569    -0.65905320    -1.78428812    -1.80307281     1.53948212     0.31834528     1.26969486     0.12110607    -1.46274759     1.10220040     1.58312278     0.73661186    -1.19161555    -0.40415737     0.98450929    -1.40714237     0.01763622    -0.00717039    -0.25632322     1.26843167    -0.68313476     1.98764557    -1.70397564    -1.67656922     0.57193001    -1.10090869     1.67460151    -0.14472224     0.55012103    -1.98748609    -1.15736870    -0.11469649    -1.89614935    -0.60511290     1.38353847     1.99959986     1.90361652     1.47998381     1.17289011     1.48614234     1.46259281     1.48549560     1.51022806     1.49575102
     1.00000000     0.19379719     0.26446444     6.52120916     1.13914787    50.18074864    23.06577778    10.33720365     0.01921042    24.77371823     0.11952332     1.00360545     0.24903462     0.98079502    12.67846173     5.28514066     4.58711141     3.01105812     2.33183176     1.17605119     0.05799006     0.09512433     0.03545478     0.98412227     0.06908159    12.48242743     2.18852538     1.90059676    15.42014181     1.26793614     2.56449514     3.77001673     0.57625774     0.34408351     2.43094015     0.04663713    27.81437323     0.07014384     0.06712395     0.03292348    10.58072474     0.70282373     6.16678193     6.94017087     3.73275473     0.49090781     1.63216112     0.35904623     0.70862380     0.56530568     2.70707602     2.15732419    13.74862695     0.28539161     3.21214611     1.78412114     3.72476039     1.52813093    15.90046739     5.47238157     1.08268439    33.62246247     0.58935614     1.08774051     2.93887773    40.72319073     0.15557638     1.46180062     0.20017060     0.58327842    15.45748305    23.46620377     0.02836377     7.03514509     4.05609432    29.65936754     0.18104476     0.36386670     0.29128179     6.37853136     0.21218068     0.27813215     0.27913335     0.19390669     0.99287540    20.06226601     0.37340614     0.47388275     0.29133915     0.14004101    36.99939111     1.38990206     5.04222966     3.78546908     8.75557702    21.25184018     6.32991766     4.16946022     3.13643175     5.22099563     8.50845239     7.72071823    11.24720635     9.17506860     1.16481568     1.65756783     2.14046422     4.57175191    12.39812166     0.72721249     0.41200315     1.63749235     1.53397809     0.79379097     1.19315361    20.63938777     0.18754663     1.09695482     2.25434103     0.03745920    17.66353485    14.36564849    15.08986258     0.76650396     1.65242232     8.04205973     1.66594092     5.34117273     3.70721861     2.51978687    13.84401745     0.10910569     6.55705465     0.19276501     0.02555372     0.59756648     0.38983238     8.44151530     4.12395440     0.73580088     0.58682502     0.17231498     0.50223097     0.06261001     0.30239168    29.33294801    28.13213778     1.14442577     0.70041980     5.75533557     9.11101902     5.11653297     3.69656860     7.31627849     2.15731705
