TITLE = " "
VARIABLES = "x" "y" "f"
ZONE T="hsample", I=   55, J=    1, K=    1, F=BLOCK
     0.00000000     1.96965466     0.98579559    -0.73358782    -1.41045874     0.21023315    -1.31132780    -1.96708360     1.41614083     1.08751707     1.89872106     1.84622548    -0.84726526    -0.51791836     0.24705186    -1.99529097     1.08023661    -1.92351136     1.22214363    -0.63981359     1.94855803    -1.64962945     0.51642305    -1.31019747     0.08975888     1.90724942    -0.91262562     1.19986248    -1.48920028    -1.73315520    -1.35078809    -1.92828690     0.66928242    -1.73785833    -0.47639259     0.73639728    -0.36202521    -0.89347087     0.07210693    -0.43391171     1.68742033    -1.95010486     0.79303970    -1.25808873    -1.02780619     0.40636833     1.87212575     1.76761126    -0.35256731     0.07789729     1.46064831     0.99987455     1.95956008    -1.78744833     1.53237852
     0.00000000     0.41990922    -1.58570952    -0.01990974     1.37692207     1.37427154    -1.62370497    -0.31633677     1.79146535    -0.34898364    -1.57808804    -0.83554330     1.96376722    -1.21086893    -1.73217487    -1.53507248     1.13367380     0.69411277     0.48168868     1.10546124     1.94793114    -1.11843846    -1.23622266     0.71629556    -0.92877471     0.93292722     1.45030109    -0.96197282    -0.38934777     0.31516167     1.93224855     1.11704092     1.84112983    -1.92357358    -1.70627575     0.32079719    -0.43918798     0.36170424    -1.29688314    -0.79240155    -1.96698013     1.94764756    -1.92224236    -1.10368648    -0.80408911     0.80063167     1.32532038    -0.21450904     0.17111999     1.91646163     1.17393924     1.92335783     0.04234575    -0.60936523    -0.72329074
     5.00000000     9.05586322     8.48626762     5.53854748     8.88530826     6.93282024     9.35599843     8.96948685    10.21480293     6.30448295    11.09550354     9.10668114     9.57424011     6.73444300     8.06146440    11.33763357     7.45212740     9.18168848     6.72565904     6.63140599    12.59131413     8.97218192     6.79493925     7.22969673     5.87067912     9.50795356     7.93625877     7.36506167     7.36930917     8.10315383    10.55821291     9.96607078     8.83769799    11.72028689     8.13832684     5.64519179     5.32394834     5.92912016     6.68710529     5.81617958    11.71639822    12.59623996     9.32392764     7.80091110     6.70294485     5.80614628    10.26132894     8.17046368     5.15358576     8.67889318     8.51162682     9.69905446     8.84166887     8.56629752     7.87133344
