TITLE = " "
VARIABLES = "x" "y" "f"
ZONE T="hsample", I=   15, J=    1, K=    1, F=BLOCK
     0.00000000     0.12443516     1.38166985    -0.27481092    -1.74713465    -1.99052755    -1.99349599    -1.98229645    -1.05897384    -0.26193055     0.56424449    -1.21392568     1.97374958     1.40476787    -1.07936610
     0.00000000    -0.09214095     0.38698561     1.06706823    -1.78427528     1.94406038     0.84577185    -0.24514976     0.31291748    -1.98107585     1.99907872     1.77282036    -1.91136435     1.94741564    -1.34099534
     1.00000000     1.92492920   231.80197790    99.94172532  2346.96643200   416.23197610   987.55857950  1751.66348800    69.60791041   421.71269640   282.66744330    13.85381841  3373.13320000     0.23121433   632.34065760
