TITLE = " "
VARIABLES = "x" "y" "f"
ZONE T="hsample", I=  155, J=    1, K=    1, F=BLOCK
     0.00000000    -0.09601829    -1.77942673     0.17487618     1.14396665     1.99220613     1.33639144     0.50119091     1.24657386    -0.53673027     1.99929466     1.99708398    -1.91373586     1.98626912    -1.98424598     1.49738436     0.18471973     0.88216600    -0.41166585     0.63108946    -1.35725846     0.04318313    -1.16920466     0.57404414    -1.99769251    -1.98487874    -1.52677587     1.14895397     1.62377551    -1.04952635     1.98648954     1.94469238    -0.96629192     1.98105861    -1.39004589    -0.97548020    -1.36114379    -0.56756446    -1.21718719    -0.16992298     1.60713626    -1.84633159    -1.55582302    -1.52589481     1.24920760     1.76278564     1.81958363     1.35363417     0.95331926     0.87824214     0.66652571     1.41929043     1.54674471     1.10818063     0.35260490     1.72822342    -0.45282325    -0.95419088     0.64634068    -1.35984666    -0.15924404     0.85723635    -1.98433523    -0.79971598     0.14647172     0.47513589     1.20541556     1.68452384     0.95700019     0.19437069     1.94731017     1.71569416    -1.71689918     1.71329909     0.56268250    -1.84383881    -1.59765556     0.02036137    -0.36336145     0.47686890     1.80485033     1.62354386     1.00281780    -0.74433731    -1.93317166    -0.26354826    -1.99817184    -1.06826639    -1.33902382    -0.83285782     1.99975572     1.75579111     1.75346104     0.29392152     1.79186628     0.88963402     1.38636635     1.31697643     0.88590501     1.60580670    -1.79273798     0.49523238     0.20663489    -1.71915554    -1.99279828     1.05088922    -1.18581722    -0.24626643     1.08981002     1.57503621     1.88535390     1.81875868     0.42274270     0.83699280     0.21091968     0.69882831     1.51637601     0.34668034     0.34173795     1.22109918    -1.91315075    -1.91433642    -1.44849425     0.65271716    -1.78995969     0.74661157    -0.87903218     0.73239113    -0.25236598     0.74847936    -0.75701358    -0.32366226    -1.25675759     1.17218536    -0.33224349    -0.15601026    -0.16761216     1.70938501     1.84228446     1.39127733     1.81216577     1.50040349    -0.53858060    -1.21344174     1.11039221     1.98996274    -0.59429330     0.07979804     0.06929211     0.03361335     0.34427141     0.05808348     0.30249562    -1.74737015    -0.26128537
     0.00000000    -1.35246327     1.14981714    -0.02327472     0.82169948     1.96738250    -1.76366659     1.99730832    -0.75928653     1.99770628    -0.96747242    -0.02493850    -1.98947176     0.71366193    -1.19292251     1.59501099     0.87023666     1.48742572     0.98160916     0.44087500    -1.40111880    -1.99983535    -0.90538896    -1.99070482     0.16328293     1.96434452     1.99226879     1.99263793     0.35871248     1.99360835    -1.99365068     1.53500755     0.51170726    -1.56943602     0.54436461     1.51757533     1.49205479     1.52230121    -0.13690660     1.52130636     1.93823793    -0.49835856    -0.70770255    -0.34210884     1.33419017     1.06460332    -0.40213800     0.14972610    -1.70846892    -0.63864447     1.08350721     1.05698644    -0.65278579    -1.99415957     1.14498363    -1.19827613    -1.99527441    -1.99838372    -1.09780881    -1.99800262     1.86242986     1.89403204     0.83450778     1.83672492     1.88561715     1.67229354     1.71111404     1.36287342    -0.20636076     1.60535672     0.35339844    -0.03991601    -1.12683215     0.72247420    -0.81089878    -1.65670466    -1.74458946    -0.83582806    -0.74322151     0.13783860     1.74511441    -1.99396044     1.26652626     1.23898736     1.54971283     0.67945357    -0.19055885     0.25147045     0.26779421     0.27464866     1.12108550    -0.76666525    -1.60727249    -1.54939639     0.18398196     0.63835343     1.97884480     0.65587973     0.86994834    -0.96541225     1.81123439     1.32214027     1.32977961     0.76632216     1.26480603    -0.48173610     0.76273005    -0.97004079     0.54184230    -0.20658116     1.30018439    -1.81799453    -1.84169457    -1.99850230    -1.83434800     1.63677145     0.86401433    -0.61007928     0.62993038     1.11785858     0.38592957     0.59112937     0.98833224     1.84968900     1.38934915    -0.40101713    -0.58804888    -0.08746894     1.19714492     0.18648049    -1.23168905     1.70122834     1.66172545    -0.28999310     1.98952400    -0.44883611    -0.14779594     1.54798417     0.86626062    -0.33121390     1.93644314     1.78062630    -0.27699223     1.86446283     1.55385950     1.77900267    -1.64549318     1.03900834    -1.64444429     1.26328873     1.92229890     1.73176140     1.74053212     1.99722906    -1.79393444
     1.00000000     0.23492674     0.53279977     1.16369636     7.13966694    52.43575108     0.65228405    12.16422445     1.62789427     4.31016427     2.80617472     7.18607757     0.02017709    14.87870587     0.04170357    22.02978387     2.87184990    10.69302571     1.76816681     2.92111230     0.06339456     0.14133077     0.12560746     0.24252253     0.15970777     0.97967517     1.59279912    23.14067538     7.26078525     2.57045263     0.99286444    32.44998341     0.63471153     1.50926472     0.42926481     1.71960588     1.13986632     2.59798657     0.25818115     3.86276553    34.65264957     0.09587691     0.10398324     0.15443166    13.24205530    16.90127314     4.12656619     4.49677412     0.46994028     1.27073779     5.75479216    11.89688811     2.44478924     0.41231035     4.47089461     1.69884276     0.08645790     0.05220513     0.63669272     0.03481005     5.49141422    15.66248547     0.31669141     2.82076729     7.63000777     8.56281878    18.47705330    21.06045808     2.11835414     6.04799858     9.98125279     5.34295114     0.05820807    11.42464992     0.78019119     0.03018098     0.03535749     0.44243280     0.33068700     1.84911564    34.81209004     0.69044665     9.67305379     1.63992425     0.68150013     1.51574234     0.11205890     0.44184509     0.34258701     0.57223293    22.66543838     2.68888300     1.15741440     0.28494051     7.21273524     4.60889187    28.93960733     7.19118638     5.78838517     1.89722909     1.01866853     6.15566407     4.64789533     0.38564679     0.48287751     1.76677017     0.65502153     0.29632240     5.11231491     3.92927545    24.18030096     1.00076444     0.24196750     0.31301333     0.19722140    10.33565698    10.80912131     0.76843528     2.64234909    10.37042249     0.21713822     0.26627996     0.63118138    12.21184229     0.66991091     1.41282952     0.23059760     1.90583873     2.57224471     2.54711119     0.13687289     3.96523877     1.49925431     2.41619082     5.24502758     0.54615832     0.72949110    25.98109553    15.00742501     2.88655409    42.46197268    26.60315438     0.44238584     1.91749776    14.35720216    43.33520747     0.10648124     3.06119810     0.20697605     3.65794710     9.64626032     5.98852340     7.71392963     1.28384426     0.12806468
