TITLE = " "
VARIABLES = "x" "y" "f"
ZONE T="hsample", I=    5, J=    1, K=    1, F=BLOCK
     0.00000000    -1.85648666     0.02865235    -0.44002456     1.50722695
     0.00000000    -1.03657655     1.25790841    -0.33337582     0.95264613
     1.00000000     0.18112550     0.38712357     0.76642386     0.23927637
