TITLE = " "
VARIABLES = "x" "y" "f"
ZONE T="hsample", I=  150, J=    1, K=    1, F=BLOCK
    -2.00000000     0.00000000    -1.00000000     1.00000000    -1.50000000     0.50000000    -0.50000000     1.50000000    -1.75000000     0.25000000    -0.75000000     1.25000000    -1.25000000     0.75000000    -0.25000000     1.75000000    -1.87500000     0.12500000    -0.87500000     1.12500000    -1.37500000     0.62500000    -0.37500000     1.62500000    -1.62500000     0.37500000    -0.62500000     1.37500000    -1.12500000     0.87500000    -0.12500000     1.87500000    -1.93750000     0.06250000    -0.93750000     1.06250000    -1.43750000     0.56250000    -0.43750000     1.56250000    -1.68750000     0.31250000    -0.68750000     1.31250000    -1.18750000     0.81250000    -0.18750000     1.81250000    -1.81250000     0.18750000    -0.81250000     1.18750000    -1.31250000     0.68750000    -0.31250000     1.68750000    -1.56250000     0.43750000    -0.56250000     1.43750000    -1.06250000     0.93750000    -0.06250000     1.93750000    -1.96875000     0.03125000    -0.96875000     1.03125000    -1.46875000     0.53125000    -0.46875000     1.53125000    -1.71875000     0.28125000    -0.71875000     1.28125000    -1.21875000     0.78125000    -0.21875000     1.78125000    -1.84375000     0.15625000    -0.84375000     1.15625000    -1.34375000     0.65625000    -0.34375000     1.65625000    -1.59375000     0.40625000    -0.59375000     1.40625000    -1.09375000     0.90625000    -0.09375000     1.90625000    -1.90625000     0.09375000    -0.90625000     1.09375000    -1.40625000     0.59375000    -0.40625000     1.59375000    -1.65625000     0.34375000    -0.65625000     1.34375000    -1.15625000     0.84375000    -0.15625000     1.84375000    -1.78125000     0.21875000    -0.78125000     1.21875000    -1.28125000     0.71875000    -0.28125000     1.71875000    -1.53125000     0.46875000    -0.53125000     1.46875000    -1.03125000     0.96875000    -0.03125000     1.96875000    -1.98437500     0.01562500    -0.98437500     1.01562500    -1.48437500     0.51562500    -0.48437500     1.51562500    -1.73437500     0.26562500    -0.73437500     1.26562500    -1.23437500     0.76562500    -0.23437500     1.76562500    -1.85937500     0.14062500    -0.85937500     1.14062500    -1.35937500     0.64062500
    -2.00000000    -0.66666667     0.66666667    -1.55555556    -0.22222222     1.11111111    -1.11111111     0.22222222     1.55555556    -1.85185185    -0.51851852     0.81481481    -1.40740741    -0.07407407     1.25925926    -0.96296296     0.37037037     1.70370370    -1.70370370    -0.37037037     0.96296296    -1.25925926     0.07407407     1.40740741    -0.81481481     0.51851852     1.85185185    -1.95061728    -0.61728395     0.71604938    -1.50617284    -0.17283951     1.16049383    -1.06172840     0.27160494     1.60493827    -1.80246914    -0.46913580     0.86419753    -1.35802469    -0.02469136     1.30864198    -0.91358025     0.41975309     1.75308642    -1.65432099    -0.32098765     1.01234568    -1.20987654     0.12345679     1.45679012    -0.76543210     0.56790123     1.90123457    -1.90123457    -0.56790123     0.76543210    -1.45679012    -0.12345679     1.20987654    -1.01234568     0.32098765     1.65432099    -1.75308642    -0.41975309     0.91358025    -1.30864198     0.02469136     1.35802469    -0.86419753     0.46913580     1.80246914    -1.60493827    -0.27160494     1.06172840    -1.16049383     0.17283951     1.50617284    -0.71604938     0.61728395     1.95061728    -1.98353909    -0.65020576     0.68312757    -1.53909465    -0.20576132     1.12757202    -1.09465021     0.23868313     1.57201646    -1.83539095    -0.50205761     0.83127572    -1.39094650    -0.05761317     1.27572016    -0.94650206     0.38683128     1.72016461    -1.68724280    -0.35390947     0.97942387    -1.24279835     0.09053498     1.42386831    -0.79835391     0.53497942     1.86831276    -1.93415638    -0.60082305     0.73251029    -1.48971193    -0.15637860     1.17695473    -1.04526749     0.28806584     1.62139918    -1.78600823    -0.45267490     0.88065844    -1.34156379    -0.00823045     1.32510288    -0.89711934     0.43621399     1.76954733    -1.63786008    -0.30452675     1.02880658    -1.19341564     0.13991770     1.47325103    -0.74897119     0.58436214     1.91769547    -1.88477366    -0.55144033     0.78189300    -1.44032922    -0.10699588     1.22633745    -0.99588477     0.33744856     1.67078189    -1.73662551    -0.40329218     0.93004115    -1.29218107     0.04115226     1.37448560
     0.11111111     0.69230769     0.40909091     0.22625698     0.30308700     0.40248447     0.40248447     0.30308700     0.15426735     0.22262516     0.54604185     0.30994074     0.22010454     0.63776040     0.37761015     0.20040893     0.21492438     0.25521719     0.21421389     0.41618126     0.26192254     0.33598099     0.87251510     0.17789098     0.23231242     0.70947826     0.20746973     0.14935331     0.37783407     0.43891380     0.30448986     0.21999787     0.16391690     0.46922507     0.51211786     0.21255191     0.15834557     0.65083207     0.51593102     0.18919194     0.25985730     0.35584655     0.43340981     0.34496451     0.18236633     0.22743120     0.87858846     0.18832392     0.17394458     0.95202025     0.26438284     0.33377363     0.32838910     0.19656603     0.21220839     0.23979849     0.24830578     0.30178260     0.75094930     0.22074044     0.31708284     0.50455631     0.26733077     0.12775931     0.19793478     0.54477939     0.27389603     0.48447588     0.19994171     0.49283809     0.69453369     0.15166172     0.15314104     0.86739988     0.37823360     0.25073041     0.39757874     0.25780450     0.64078811     0.21959243     0.12188698     0.20166001     0.46845394     0.35668715     0.19325627     0.67888580     0.41848311     0.20237085     0.27800878     0.27500672     0.21181060     0.30963578     0.34634333     0.26623918     0.98803652     0.15971249     0.18084310     0.86323918     0.20919385     0.19829163     0.32229048     0.43256147     0.36905996     0.28183021     0.17329326     0.56962756     0.58245628     0.15882453     0.16453119     0.48241538     0.64062099     0.15108808     0.23824807     0.41100271     0.36996811     0.38935754     0.18973399     0.21247541     0.77880642     0.21143165     0.19438160     0.81981035     0.32915047     0.25239461     0.44370312     0.19724744     0.27147634     0.20125936     0.16677265     0.41245872     0.50287365     0.23798402     0.26565174     0.62214271     0.20357581     0.14599625     0.23190325     0.59456096     0.27671283     0.38266457     0.24828773     0.38790239     0.85557605     0.14473992     0.13381250     0.84572320     0.38409804     0.25184113     0.35092720     0.30306602
