TITLE = " "
VARIABLES = "x" "y" "f"
ZONE T="hsample", I=  150, J=    1, K=    1, F=BLOCK
    -1.94666667    -1.92000000    -1.89333333    -1.86666667    -1.84000000    -1.81333333    -1.78666667    -1.76000000    -1.73333333    -1.70666667    -1.68000000    -1.65333333    -1.62666667    -1.60000000    -1.57333333    -1.54666667    -1.52000000    -1.49333333    -1.46666667    -1.44000000    -1.41333333    -1.38666667    -1.36000000    -1.33333333    -1.30666667    -1.28000000    -1.25333333    -1.22666667    -1.20000000    -1.17333333    -1.14666667    -1.12000000    -1.09333333    -1.06666667    -1.04000000    -1.01333333    -0.98666667    -0.96000000    -0.93333333    -0.90666667    -0.88000000    -0.85333333    -0.82666667    -0.80000000    -0.77333333    -0.74666667    -0.72000000    -0.69333333    -0.66666667    -0.64000000    -0.61333333    -0.58666667    -0.56000000    -0.53333333    -0.50666667    -0.48000000    -0.45333333    -0.42666667    -0.40000000    -0.37333333    -0.34666667    -0.32000000    -0.29333333    -0.26666667    -0.24000000    -0.21333333    -0.18666667    -0.16000000    -0.13333333    -0.10666667    -0.08000000    -0.05333333    -0.02666667     0.00000000     0.02666667     0.05333333     0.08000000     0.10666667     0.13333333     0.16000000     0.18666667     0.21333333     0.24000000     0.26666667     0.29333333     0.32000000     0.34666667     0.37333333     0.40000000     0.42666667     0.45333333     0.48000000     0.50666667     0.53333333     0.56000000     0.58666667     0.61333333     0.64000000     0.66666667     0.69333333     0.72000000     0.74666667     0.77333333     0.80000000     0.82666667     0.85333333     0.88000000     0.90666667     0.93333333     0.96000000     0.98666667     1.01333333     1.04000000     1.06666667     1.09333333     1.12000000     1.14666667     1.17333333     1.20000000     1.22666667     1.25333333     1.28000000     1.30666667     1.33333333     1.36000000     1.38666667     1.41333333     1.44000000     1.46666667     1.49333333     1.52000000     1.54666667     1.57333333     1.60000000     1.62666667     1.65333333     1.68000000     1.70666667     1.73333333     1.76000000     1.78666667     1.81333333     1.84000000     1.86666667     1.89333333     1.92000000     1.94666667     1.97333333     2.00000000    -1.97333333
     0.00000000    -1.00000000     1.00000000    -1.50000000     0.50000000    -0.50000000     1.50000000    -1.75000000     0.25000000    -0.75000000     1.25000000    -1.25000000     0.75000000    -0.25000000     1.75000000    -1.87500000     0.12500000    -0.87500000     1.12500000    -1.37500000     0.62500000    -0.37500000     1.62500000    -1.62500000     0.37500000    -0.62500000     1.37500000    -1.12500000     0.87500000    -0.12500000     1.87500000    -1.93750000     0.06250000    -0.93750000     1.06250000    -1.43750000     0.56250000    -0.43750000     1.56250000    -1.68750000     0.31250000    -0.68750000     1.31250000    -1.18750000     0.81250000    -0.18750000     1.81250000    -1.81250000     0.18750000    -0.81250000     1.18750000    -1.31250000     0.68750000    -0.31250000     1.68750000    -1.56250000     0.43750000    -0.56250000     1.43750000    -1.06250000     0.93750000    -0.06250000     1.93750000    -1.96875000     0.03125000    -0.96875000     1.03125000    -1.46875000     0.53125000    -0.46875000     1.53125000    -1.71875000     0.28125000    -0.71875000     1.28125000    -1.21875000     0.78125000    -0.21875000     1.78125000    -1.84375000     0.15625000    -0.84375000     1.15625000    -1.34375000     0.65625000    -0.34375000     1.65625000    -1.59375000     0.40625000    -0.59375000     1.40625000    -1.09375000     0.90625000    -0.09375000     1.90625000    -1.90625000     0.09375000    -0.90625000     1.09375000    -1.40625000     0.59375000    -0.40625000     1.59375000    -1.65625000     0.34375000    -0.65625000     1.34375000    -1.15625000     0.84375000    -0.15625000     1.84375000    -1.78125000     0.21875000    -0.78125000     1.21875000    -1.28125000     0.71875000    -0.28125000     1.71875000    -1.53125000     0.46875000    -0.53125000     1.46875000    -1.03125000     0.96875000    -0.03125000     1.96875000    -1.98437500     0.01562500    -0.98437500     1.01562500    -1.48437500     0.51562500    -0.48437500     1.51562500    -1.73437500     0.26562500    -0.73437500     1.26562500    -1.23437500     0.76562500    -0.23437500     1.76562500    -1.85937500     0.14062500    -0.85937500     1.14062500    -1.35937500     0.64062500    -0.35937500
  1444.72229100  2204.76089600   676.44453060  2492.68642000   840.73433600  1442.94393200   294.11207430  2357.54017600   766.16753090  1348.87131300   254.42657600  1593.87625500   366.39783130   796.37000000    59.23933649  1827.36613000   483.94771600   970.34681130   111.37484570  1195.23779600   194.20285280   533.70508690    10.61411600  1163.33410500   182.84376540   517.49635600     8.91301575   696.49609720    36.76250000   230.23700390    35.98560242  1023.31696100   132.72325040   434.94889660     4.19808100   611.35286520    20.83985779   188.55688100    51.53963735   633.41670960    24.86956100   203.84920150    42.91618816   337.21562500     7.74382964    58.55500001   170.42788100   528.74909780     9.37982253   152.04244100    68.42721927   276.97563700    16.41372100    37.98537809   206.98572890   323.63944100     7.49406224    57.47002075   165.16062500   146.33706370    68.61507260     4.46160100   344.46147850   417.70777970     1.60703225   104.34473790   100.69058090   224.65379230    27.64981674    24.27697941   233.68315230   297.49825420     8.92425126    52.66015625   164.92536240   150.12547640    60.88565225     6.09392385   311.73453900   350.15254230     2.13544200    79.69737682   121.28078220   200.72097420    33.01281534    20.36738225   236.37863160   300.76590050     6.42390625    60.51441311   144.47623240   175.60772220    42.43345460    14.52088156   253.84700220   506.61336270     8.12605608   173.27572230    42.27088156   356.15626790     0.64616225    92.94772571    99.19433311   527.31640620    11.56474719   191.68553830    32.43034225   391.37360200     0.07930748   116.17766220    75.73175015   788.53961870    74.45261225   368.27120560     0.06333719   642.96649230    35.55436978   274.91354900     7.81015625   921.75736460   121.52539420   470.81651220     5.78836608   789.17481670    77.71927225   381.99802090     0.25356460  1646.90971000   456.24787090  1033.49261400   167.91463010  1503.06498800   384.39180610   927.18191410   128.17752310  1996.62747500   654.17224010  1330.62308800   302.88708380  1877.17834000   589.43468280  1241.49931800   263.13750010  2856.39173700  1186.97095900  2067.25343500   702.55594070  2760.78896400  1129.54003900  1817.99840800
