TITLE = " "
VARIABLES = "x" "y" "f"
ZONE T="hsample", I=   15, J=    1, K=    1, F=BLOCK
     0.00000000     0.82307745    -1.53733768    -0.03442128     1.48153067     1.88508675     1.81669564    -0.83191365    -1.14663636    -0.86374793    -1.99807065    -1.96530906    -1.88398357     1.22463986    -1.09301524
     0.00000000     1.08603053    -0.08486912    -1.39536765     0.05585110     1.99347110     1.08460858     1.99264195    -1.97548288     1.07783978    -1.91654854    -1.21240891     1.42686622    -1.99895882    -1.07663126
     1.00000000    16.72457670   605.84375320   196.10590970   457.79906750   244.16864010   491.63263470   172.50196080  1087.18770200    14.48130645  3500.42136000  2584.20191600   458.82981900  1224.14175200   520.26725280
