TITLE = " "
VARIABLES = "x" "y" "f"
ZONE T="hsample", I=   15, J=    1, K=    1, F=BLOCK
     0.00000000     0.93862462     1.46395608    -1.29011434    -0.95169743    -1.99472740    -0.88536642     0.18397156    -1.96476758    -1.44449405     1.48041458     1.47711410     1.46239615     0.36303994     0.38051333
     0.00000000     0.82129256     1.46400894    -0.40174316    -1.09736530     1.96386404     1.98817194     1.79145691    -1.99032791     1.04393204    -1.97103193    -1.10198862    -0.24957625    -1.96961106    -1.14390645
     1.00000000     5.81195600    18.68955895     0.18417710     0.12885562     0.96960804     3.01260609     7.20970815     0.01915684     0.66994343     0.61224831     1.45517399     3.36295447     0.20057418     0.46608227
