TITLE = " "
VARIABLES = "x" "y" "f"
ZONE T="hsample", I=   25, J=    1, K=    1, F=BLOCK
     0.00000000     0.32689567    -1.53107654    -1.47008132     1.34328575     0.93699719     1.94505889    -1.89526755    -1.09500328    -0.55352255     1.61309345     1.76169014    -0.27389970    -0.93228267     1.29180750    -1.75793190    -0.39478871     0.61940280     1.13621454    -1.30890567    -0.77762994     0.70695054     0.05112391     0.40616572    -0.07273618
     0.00000000    -0.47689695     0.29302080     0.13388321    -1.82485105     1.72845811     1.52871963    -0.64257406     1.09108607    -0.78313874     1.45379421    -1.41397343    -0.31810297    -1.52335804     0.92144984     1.97408243     0.73681322    -0.88021284     0.59607625    -0.07985233    -1.24483946     1.31655643     0.36391553    -1.83831663    -1.08764659
     1.00000000     0.74946143     0.29154038     0.31455802     0.16301252     0.20552741     0.14044475     0.19980258     0.29502868     0.52091649     0.17496012     0.16385725     0.85018792     0.23867655     0.28426563     0.12519835     0.58866750     0.46329875     0.37788748     0.36769972     0.31702417     0.30930068     0.88101988     0.22005209     0.45698291
