TITLE = " "
VARIABLES = "x" "y" "f"
ZONE T="hsample", I=   25, J=    1, K=    1, F=BLOCK
     0.00000000    -0.00039800     0.31080219     1.65247404    -1.86888009     1.96129335    -1.08492166     1.87178647    -1.07990912     0.99226489     1.18096020    -1.98949994    -0.33138822    -1.95067887    -1.99750009    -1.40629229    -0.71539990     1.97878460    -0.45988735     0.51825517     0.55636999    -0.50473435     1.40585710    -1.07822230     1.52114213
     0.00000000     1.73224503    -1.15781618     0.58344538    -0.03347852    -0.41748493     0.79646980     1.98361899    -1.99581437    -1.99267768     1.58605218    -1.74385636    -1.74594045    -0.77138122     1.27851371     1.89207337     1.89177233     1.14292460     0.48532482     0.50183711     1.99889098     1.36132892    -0.65530350     1.40462651    -1.20585758
     1.00000000     5.65108198     0.42869311     9.35507912     0.14921626     4.68238887     0.74942288    47.24777001     0.04615622     0.36772762    15.91102684     0.02391244     0.12526439     0.06573919     0.48724589     1.62544411     3.24259013    22.68511983     1.02576377     2.77345067    12.87465915     2.35512681     2.11817233     1.38597548     1.37064927
