TITLE = " "
VARIABLES = "x" "y" "f"
ZONE T="hsample", I=   75, J=    1, K=    1, F=BLOCK
     0.00000000    -0.53458835    -0.12377283    -0.84461914     1.24294871     1.48225049    -0.89707095    -1.44979336     1.26889890    -1.50804903     0.11185432    -0.76712631    -0.55130666    -0.24341443     1.79858536     1.58095974     0.97410859     0.87005837     0.63865479     0.35758066     0.18243975     1.07569573     1.32632494    -1.59193086    -0.01440551    -1.62694661    -0.95646973    -0.19751576     1.75797698     0.96773521    -1.97698164    -0.42776735     1.43302967    -1.12445121     0.75390434     1.35673872     1.95084033    -1.19955334     0.02590606    -1.89408970    -1.15483125    -1.30289744     0.47297173    -0.60193402    -1.78613717    -1.28305097     1.92448836     1.84887252     1.62211069    -0.10459371     0.85030594    -0.36747355    -1.69545405     0.66593086     1.11072075     1.55937395     0.77637215    -0.75644757     0.49381865     0.31279853    -1.06545510    -0.99568167     0.55111987     0.40145814    -0.47687734    -0.66129318    -1.75990850     0.24486980    -1.39216416     1.68073587    -1.87226861    -1.54293501     0.10745519    -0.27091658     1.13749613
     0.00000000     1.62710395     1.43877428    -0.73687975     1.69440362    -1.23937557     0.78784994    -0.33581444     1.80458962     1.95391845    -0.49266733    -0.04362920    -0.41103551     0.32073155     1.39996142     0.44884144     0.05648873    -1.35069509    -0.70000596     0.99988028    -1.93100506    -1.69928803    -1.82576751    -1.99887439     1.29651083    -1.05602556    -0.13503194     0.24794334    -0.22172835     0.11424915     0.40169414    -0.18608351     0.49451384    -1.08430520     1.10960809    -0.97900466     1.22007905    -1.26661352     0.02660256    -1.59347531     1.32536239     1.58187188     0.57471327    -1.49680902     1.07677216    -1.77130427     0.66204075     0.64857350    -1.85757134    -0.57985505     1.78154403     0.19434064    -1.55463893     0.91326053    -1.37089409     0.73444241     1.88164430    -0.06906139     0.85277306    -0.79460792     0.37609303    -1.65304648    -0.96841348    -0.82802640    -0.90997602    -0.61558714     1.17822608    -1.44617907    -1.17487782     1.50422218    -0.48377878     1.94086385     0.96358032    -0.29478596     1.53233246
     1.00000000     0.25424255     0.32410802     0.44318909     0.18464066     0.21127720     0.41229568     0.31107371     0.17045508     0.14100377     0.79666517     0.62877806     0.67893769     0.86049685     0.16142568     0.27020510     0.51227448     0.27922207     0.52690140     0.47000775     0.20999294     0.19822780     0.16413449     0.13280666     0.37297458     0.20998940     0.51731239     0.90868747     0.24156652     0.51293512     0.19724587     0.82127970     0.30320322     0.29068852     0.35719365     0.26321400     0.15887211     0.24732652     0.99862308     0.14031662     0.24448559     0.19231286     0.64350164     0.27756484     0.18692552     0.17289855     0.19447862     0.20665524     0.14120675     0.74229586     0.20421002     0.85265660     0.15894545     0.43907626     0.24312851     0.25182239     0.19442623     0.63412249     0.50733640     0.57828717     0.43924370     0.21168749     0.44611832     0.54147822     0.48650713     0.55058312     0.18229897     0.31731978     0.23156409     0.16426950     0.21099576     0.13990708     0.51545498     0.86185012     0.21542716
