TITLE = " "
VARIABLES = "x" "y" "f"
ZONE T="hsample", I=   15, J=    1, K=    1, F=BLOCK
     0.00000000    -0.94293059    -1.83439262     1.36315448     0.53735996     1.97435763     0.90246013    -1.96935545    -0.95954722    -1.10213552     1.99924850     1.99274473    -1.99068940    -0.98084766    -1.97413119
     0.00000000    -1.59118869     1.89164073    -0.19423269     0.53122995    -1.98864021    -1.99085949    -1.95584661     0.79232938    -0.27314169     1.67388099     0.86927754     0.59189542     1.99888734    -0.21771328
     1.00000000   618.96715480   225.11144540   421.37582670     6.09341063  3466.30633000   786.97683070  3412.61480200     5.48851944   225.78706700   540.68416670   963.07333150  1145.27385100   111.42440980  1702.09162300
