TITLE = " "
VARIABLES = "x" "y" "f"
ZONE T="hsample", I=  150, J=    1, K=    1, F=BLOCK
     0.00000000     1.40508181    -1.79004807    -0.33790725     0.79276768    -1.11419434    -0.51265316    -1.63612470    -1.80794381     1.31429591    -0.37740232     1.92786364     0.25406693    -0.54691747    -0.96685596     0.73704917     0.29464977     0.67761144     0.50321324     0.71107524     1.28837510    -0.32966642     1.62895231     1.94676178     1.95219612    -0.65838544    -0.54303810    -1.78446859    -1.99095505    -1.01506272     0.92727830    -0.33061016     0.14052474     0.99984280     1.71970152     0.52504236    -0.64186531     1.96775536     1.07011632    -1.04412320    -1.98587519    -0.82775897    -1.36809130    -1.36002766     1.19439687     0.21370808    -0.04869606     0.61192280     1.07515788     0.33943981     0.52783801    -0.65841386     0.15004836    -0.06727067     0.26606687    -0.01581813     1.96589435     1.05333046     1.65385145    -1.05350590    -1.11954787    -1.41709344     1.55890472     1.29826237    -1.92268672    -0.15949833     0.45970144    -1.54108172    -1.32599646    -1.99476363     0.36807161    -0.28592697     0.57294220     0.23860953    -0.58459480     0.20937783    -1.05429975     0.78517900    -0.30104895     1.58565805    -0.90033631     0.79126186    -0.81378346    -0.94453650    -1.59280232    -1.81524980    -1.70303940    -1.10040804     1.37316335    -0.56411690     0.17731233    -1.53184259    -1.22159049    -1.96132007    -0.86595471     0.68934641     0.93055477     1.98253489     0.28171995    -0.68599248     0.92769243     1.28494094    -0.11849378     1.71572776     1.47591405    -0.43371151    -0.23510159     0.90908170    -0.77846925     1.32476643    -0.36303951    -0.86804792    -1.26293765    -0.21878425     1.27006605     1.04238760     0.12652583     1.82857564     1.89159027     0.90278113    -0.75081070     0.33315494    -0.82510029    -1.59140811    -1.98536424     1.23653740    -0.44486458     0.85344358    -0.20901078    -1.84945015     0.56540561     0.50971331     0.47155744     0.97747111     1.46282466     0.00374949    -1.09877244    -1.37056904    -1.63505164    -0.00204284    -0.28366073    -1.49128084    -1.76173415     1.15158055     1.42683615     0.34335759     1.51831773    -1.10590883     1.35686106     1.59139731
     0.00000000     1.04642382    -1.75484381    -0.65989108     0.21061923     0.83907566     1.74795470     1.72119369     0.08599338    -1.81687705    -1.99499917    -0.27668950     0.94422618    -1.43171076    -0.60261747    -0.66172910    -0.89256361     1.95992280     1.45053113    -1.18031256     0.21982392     0.43159142    -0.86903147     1.73686531    -1.12351289    -0.09041052     0.85710630    -0.72723134     0.91155565    -0.18685830     0.55071290     1.22092495    -1.38748624     0.90347750     0.36630831    -0.33841596    -0.98056727    -1.89718969    -0.82031431    -1.91696707     1.83877091     1.33048618    -1.18463985    -0.17803960     1.97618711     0.48140033     0.72699418    -1.54256950    -0.15168278    -1.64136263     0.77627625     0.34237251     1.44994018     1.58635852     1.66920012    -0.41256603     0.82944652    -1.26793752     0.80935929     1.93972265     0.20603503     0.64489924     0.02822930    -0.49710868    -1.99414488    -1.07331513    -1.86873000     1.19296643    -0.69348882    -1.17082293     0.19640084    -0.23572934     0.24020855    -0.36926742    -0.48801722     1.99412143    -1.30159346     1.10683718    -1.71272751     1.38732242     0.57252812     1.37070387    -1.72189424    -1.57025902     0.13887801     0.54009941     0.75447934    -0.89781366    -1.48323984     1.09104884    -0.66170853    -0.44365443     1.35676706    -0.38061087     1.57507855    -0.00264864     1.61934006     0.54138734    -1.18083311     1.99807537    -0.32823531    -0.14221788     1.18147421    -0.35381094    -1.15692274     0.11284134     0.19017307    -0.99593451     0.07222420     0.69466021    -1.22465775     1.00006106     0.43111084    -1.33514707     1.40065565    -1.59818628    -1.98208426     1.98647200    -0.74268930    -1.78325838    -0.75328321     1.14445517    -1.28226268    -0.13453030     0.38907980    -0.93026580     1.47088034    -1.98686707     1.97927329     1.31284983    -0.51680660     0.56530341    -0.93922454     0.37185227    -0.33175359    -1.01940720    -0.34357621     1.07766762    -1.99231074    -1.75513134     0.68630348    -1.53351006    -1.00225911     1.14593302     0.57428085    -0.10681529     1.65649151     1.16545195     1.62895563    -1.55851045
     1.00000000     0.24574507     0.13729194     0.64531219     0.59778542     0.33950359     0.23158018     0.15061575     0.23386038     0.16588105     0.19521892     0.20862822     0.51121789     0.29860423     0.43516891     0.50476323     0.53092977     0.18866306     0.29786158     0.34497441     0.36924445     0.77222993     0.22682417     0.12809703     0.16465375     0.69365183     0.49272696     0.21217037     0.17256745     0.48419858     0.46229312     0.38462118     0.33957411     0.35511903     0.24440585     0.71932363     0.42131815     0.11804438     0.35485348     0.17346186     0.12012331     0.28940391     0.23391565     0.34705673     0.15793049     0.78282947     0.65321401     0.26638464     0.45893198     0.26251607     0.53157057     0.64485852     0.32001628     0.28400549     0.25926748     0.85436426     0.18009185     0.26902182     0.22777554     0.17028817     0.43557083     0.29205191     0.29146184     0.34099408     0.11529586     0.45925383     0.21260866     0.20841575     0.30871883     0.15748259     0.85175248     0.87925804     0.72152003     0.83801720     0.63294669     0.19918893     0.26276420     0.35191508     0.24850487     0.18385817     0.46764069     0.28531286     0.21611513     0.22947029     0.28119062     0.21801505     0.22373456     0.33145869     0.19663448     0.39862626     0.68059720     0.28221713     0.23078165     0.20033492     0.23636471     0.67787167     0.22280675     0.19144088     0.40424735     0.18305326     0.50803930     0.37434969     0.41495118     0.24576643     0.22139605     0.83275121     0.91622199     0.35482193     0.62064358     0.30887469     0.37999923     0.36315709     0.35959995     0.35329644     0.21858382     0.21548142     0.20223810     0.12063076     0.19494313     0.20019923     0.46922972     0.41309173     0.30075296     0.28163634     0.19634584     0.29460121     0.29749567     0.17618020     0.20156380     0.16275934     0.63021004     0.63316161     0.47517018     0.47761790     0.30770022     0.49038716     0.43004362     0.24753535     0.13084388     0.24506860     0.64454756     0.17935381     0.19576250     0.27477810     0.29711855     0.88550120     0.16530967     0.27922723     0.18199792     0.16774301
