TITLE = " "
VARIABLES = "x" "y" "f"
ZONE T="hsample", I=    5, J=    1, K=    1, F=BLOCK
    -2.00000000    -2.00000000    -2.00000000    -2.00000000    -2.00000000
    -2.00000000    -2.00000000    -2.00000000    -2.00000000    -2.00000000
     0.01831564     0.01831564     0.01831564     0.01831564     0.01831564
