TITLE = " "
VARIABLES = "x" "y" "f"
ZONE T="hsample", I=   25, J=    1, K=    1, F=BLOCK
     0.00000000    -0.62241009    -1.84642174     0.18981672     1.24965118     2.00000000     2.00000000     0.72000000    -2.00000000    -2.00000000     2.00000000     2.00000000     1.12000000     1.00000000    -0.92000000     1.92000000     0.32000000     0.00000000    -0.92000000    -2.00000000    -0.72000000     1.40000000    -1.24000000    -0.08000000    -2.00000000
     0.00000000     0.88732353    -1.75344908    -0.21871771     1.01138960     2.00000000    -2.00000000     2.00000000     1.28000000     0.16000000     0.56000000    -0.32000000    -2.00000000     0.16000000     2.00000000     1.28000000     1.08000000     1.72000000     0.24000000    -0.88000000    -2.00000000     1.88000000    -1.68000000    -2.00000000     2.00000000
     1.00000000     1.30331815     0.02732725     0.97151265     9.59306822    54.59815003     1.00000000    15.18032224     0.48675226     0.15881743    12.93581732     5.36555597     0.41478291     3.18993328     2.94467955    24.53253020     4.05519997     5.58452846     0.50661699     0.05613476     0.06587475    26.57577270     0.05393369     0.12493021     1.00000000
