TITLE = " "
VARIABLES = "x" "y" "f"
ZONE T="hsample", I=    5, J=    1, K=    1, F=BLOCK
     0.00000000     1.80021135    -1.84786613    -0.08609371     0.02301082
     0.00000000    -1.25711425     1.68084944    -0.96339515     0.21764527
     1.00000000     1.72132975     0.84618549     0.35011666     1.27208348
