TITLE = " "
VARIABLES = "x" "y" "f"
ZONE T="hsample", I=   45, J=    1, K=    1, F=BLOCK
     0.00000000    -5.03206751     3.31941846    -0.61277257     0.01123667     2.89053629    -0.56580529    -3.32636969     3.00076451    -4.53157980     1.53377935    -2.39212927     5.02552786    -3.14558225    -3.31345481     0.53370154    -1.04365347     5.01422422     0.02138898     1.23085296     3.28470293     2.45390951     5.11773042    -5.11567503    -1.19824350     5.11058850     5.10330967     5.02353155     1.64826963     4.01294707    -5.11673508    -4.77170469    -5.05145270    -5.09844143    -2.20563079    -2.32318680    -3.52247083    -3.13470014    -1.31894410     1.21814975     4.18192205     4.14751905     4.29677879    -0.57811278     4.11801640
     0.00000000    -0.58528692    -3.95747047     0.71224581     2.71567532     0.65906974    -2.91210912     1.91531560     3.63524205    -5.05580246    -0.86061737     0.13045419     0.15410111     5.11958479    -2.89825383     4.86993305    -1.20318279     5.03583751    -4.61310888     3.61539143    -1.95537176     5.11866352     2.61426721     4.37028020     4.74474082    -2.61096897    -3.84905832    -1.43749890    -2.85938006    -2.88498359     1.59358385     0.57143120     2.72686369    -1.87398444     2.69697773    -5.09548420     4.16821792    -4.50546261    -5.11788508     1.41207096     2.70673232     3.63606634     1.80706023     3.83515401     4.55258060
     5.00000000    49.46479245    46.25973299    35.82568885    24.53992999    31.47052867    34.44430249    35.73209115    43.82138589    71.50853561    31.46467005    31.70438218    34.74058157    47.69720351    40.23585605    51.93531475    15.01129527    55.79446468    43.95055259    45.87073154    32.16654195    59.45907907    58.17048075    69.65479104    46.08378883    57.91994890    52.06293925    51.65014720    35.51412368    31.95951280    54.61241198    55.74578497    49.91957708    39.33278015    37.65686885    52.54560084    59.76698783    58.49241305    49.75003388    35.00224256    48.35188570    55.98236194    46.11595287    43.76344818    64.76882832
