TITLE = " "
VARIABLES = "x" "y" "f"
ZONE T="hsample", I=    5, J=    1, K=    1, F=BLOCK
     0.00000000     0.96062222     1.17771889    -1.07866303    -0.08947048
     0.00000000     1.26964021     0.84297387    -0.13815653    -1.99674570
     1.00000000    12.03170647    29.63039648   173.75543590   403.08946880
