TITLE = " "
VARIABLES = "x" "y" "f"
ZONE T="hsample", I=   25, J=    1, K=    1, F=BLOCK
     0.00000000    -1.66141119    -0.33791363     0.68567164     1.08333087    -1.96457470    -1.85321327     1.98640263    -0.80014534     1.90000027     0.29893769     0.74580283    -0.03771428    -0.46278489     1.22543332     1.99488716     1.33380494     1.99744190     1.26190615    -1.24038773    -1.85920244    -1.24937461    -1.26379698    -1.29025608    -1.99708347
     0.00000000    -1.45807273    -0.82829632     0.82374248     1.63992288     1.97446190     0.70843161    -1.82436930     1.55365990    -0.54648871    -1.99329349    -1.35443915     1.98780662    -1.86457593    -1.98798985     1.99731018    -0.11797596     1.35414862    -0.75155612    -1.97858846    -1.99343822    -0.95881206    -0.25348507     0.32520371     0.10010764
     1.00000000  1786.53911400    90.61723355    12.60187763    21.75210856   364.14582490   751.23088250  3330.45308400    86.67547272  1728.45068700   434.23760120   365.12716790   395.64909000   434.25814290  1217.83514400   393.92710250   359.97671530   695.64707380   549.48496250  1242.05388100  2978.50344300   639.97317690   347.62193880   184.68658200  1520.81946100
