TITLE = " "
VARIABLES = "x" "y" "f"
ZONE T="hsample", I=  150, J=    1, K=    1, F=BLOCK
    -2.00000000     0.00000000     1.00000000    -1.00000000    -0.50000000     1.19600000     0.31720000     1.26720000     1.46200000    -1.69000000    -1.01560000    -0.25440000     0.40960000    -0.07480000     1.49640000    -0.83520000     1.98320000    -0.37440000    -1.28960000     1.98160000    -0.70320000    -0.33360000    -1.10960000     0.42160000     0.86680000    -1.75920000     0.40120000     0.02680000     0.52440000    -1.50480000     0.66160000     0.87080000    -1.99840000    -1.99680000     1.20680000    -0.95880000    -1.27240000    -0.82520000     1.99480000     1.98520000     1.15960000     0.06640000    -0.43720000     1.98080000     1.98400000    -0.88040000    -1.69080000    -1.47160000    -1.91480000     0.91360000    -0.54800000    -0.81360000    -0.50080000    -1.03520000    -1.06960000    -1.94880000     1.99400000     1.09200000     0.80560000     0.92880000     0.78200000     0.76480000     1.49880000     1.34200000     0.52160000     0.58000000    -0.36120000    -1.99560000     0.18400000     1.51760000    -0.41320000    -0.25320000     0.45320000     0.16200000     1.72640000     0.27160000    -1.99600000    -0.63800000     1.48160000    -0.67680000    -1.49480000    -1.69960000     0.76520000    -0.17280000     0.97000000     0.16080000    -1.68320000    -1.60480000    -1.72480000     0.19080000    -0.39000000    -1.18440000     1.04560000    -0.55160000    -0.28120000     0.04800000     1.14440000    -0.15680000    -1.62360000     1.99560000    -0.17840000    -0.67400000     1.82120000     1.05240000    -1.34960000     0.04840000    -0.15640000     1.42240000     0.67000000     1.99520000    -0.76200000    -0.17040000     1.99960000    -1.29400000    -1.38520000     0.29200000     0.10840000     0.19960000    -0.06480000     0.41840000     0.80600000    -1.35200000    -1.83960000     0.60840000     1.57680000    -0.63360000    -0.81280000     0.16000000    -0.40320000    -0.99200000    -0.25480000    -0.96560000    -1.39560000     1.77480000    -1.02360000     0.24360000     1.64440000    -0.05120000     1.56160000     0.78720000     1.80160000    -0.12840000     1.78560000     1.64800000     1.31800000     0.59120000    -0.79560000    -1.02440000     1.64240000    -1.07880000
    -2.00000000     0.00000000    -1.00000000     1.00000000    -0.50000000     0.70263672    -1.91552734     1.62451172    -0.19506836    -0.48828125    -1.10058594     1.25830078     1.52978516    -1.19873047    -1.43334961     1.91894531     0.61547852     1.93652344     1.86523438     0.11547852     0.33105469     0.53173828     0.20410156     0.59228516    -0.00244141     0.41015625    -0.76708984    -0.69091797    -0.42041016     0.67382812     0.99365234    -1.74658203     1.00000000     1.50000000    -1.82861328    -0.68261719    -0.61132812    -1.51855469    -0.98608398    -0.63452148    -0.57080078     0.81494141    -0.95410156     1.92797852     1.61547852    -0.13574219    -1.48828125    -1.67773438    -1.32812500     1.22216797     0.81933594     0.65332031     1.08496094     1.35253906     0.63378906     1.96875000    -1.98608398     0.19482422     0.60693359     0.39404297    -0.67431641     1.98974609    -0.68334961    -0.92163086     1.89208984     0.19677734    -1.99951172    -0.75000000     1.16650391     0.41040039    -0.01660156    -0.24169922    -1.25146484    -1.11474609     1.09594727    -0.18115234     0.25000000    -1.20800781     1.99243164     1.36230469    -0.13867188    -0.13671875    -1.98681641     1.68017578    -1.98876953     0.38525391     1.63671875     1.43359375     1.83203125    -1.39599609    -1.53222656    -0.25195312     0.96435547    -1.43066406    -1.70263672     1.99658203    -1.28955078     1.99267578    -1.16015625    -1.48608398     0.30517578    -0.76269531    -1.83374023    -0.19189453     0.41210938    -1.99755859    -1.99560547     1.35180664    -0.86962891     1.01391602    -0.37207031     0.93017578    -0.23608398    -1.38476562    -1.99414062     0.10009766    -0.35693359    -0.52099609     0.61376953     0.90478516    -0.39306641     1.16210938    -1.85156250    -1.52197266     0.86352539     1.66699219     1.65332031     1.63525391     1.65527344     1.68066406    -0.74169922     0.37988281    -0.38085938    -1.07592773    -1.72558594    -1.63037109    -0.34741211     1.51220703     1.55102539     1.70068359     1.88500977    -0.46435547     1.73657227     1.90258789    -0.40600586     0.79052734    -0.94042969    -0.47558594     0.15258789    -0.01464844
     0.11111111     1.00000000     0.33333333     0.33333333     0.66666667     0.34198389     0.20964972     0.19066380     0.31491147     0.24422896     0.30838187     0.37763777     0.28506151     0.40940824     0.18890365     0.18587671     0.18825670     0.20448650     0.16280898     0.20242612     0.62340741     0.71734233     0.43997245     0.65421552     0.57098868     0.23457589     0.57162839     0.67655068     0.68882855     0.26892800     0.41236101     0.20795030     0.16684456     0.13817479     0.17240806     0.41924086     0.33414376     0.25081745     0.16802236     0.18713848     0.37446372     0.59932691     0.47586108     0.11573177     0.13252007     0.55755964     0.16464196     0.16721292     0.15551192     0.30044831     0.50719832     0.47875010     0.41187164     0.25634446     0.39281421     0.11528975     0.11210052     0.44834596     0.49569741     0.49555504     0.48397402     0.18037490     0.26929730     0.27394503     0.20609758     0.72720856     0.19498831     0.18034527     0.41760848     0.28805674     0.85396378     0.89084578     0.36080835     0.44074166     0.19299217     0.90368300     0.19815651     0.34887856     0.13956885     0.30175632     0.30734648     0.25592910     0.18073474     0.25954809     0.16960351     0.85158767     0.15356241     0.17760178     0.13640195     0.33498484     0.28572912     0.40546835     0.33076868     0.29841284     0.25137975     0.20045528     0.25172478     0.20018645     0.20072101     0.13906533     0.88892143     0.49116393     0.13021897     0.46633759     0.33430792     0.20029712     0.19972429     0.20615994     0.45348298     0.16642123     0.58170639     0.52790976     0.19785776     0.21776947     0.14502473     0.91300559     0.87784586     0.76261532     0.72415907     0.50158130     0.55428157     0.23932593     0.12800144     0.27125623     0.23629633     0.23921660     0.22757727     0.27029545     0.25624597     0.20795660     0.61917942     0.48153452     0.32333650     0.18841136     0.19898899     0.26900154     0.26145523     0.30400759     0.17110764     0.22163079     0.12822117     0.81161416     0.13881080     0.13631881     0.34459412     0.50646992     0.39723724     0.43944892     0.26876224     0.46210208
