TITLE = " "
VARIABLES = "x" "y" "f"
ZONE T="hsample", I=  150, J=    1, K=    1, F=BLOCK
     0.00000000     1.88309567    -0.81109827    -1.12863223     0.07819180     0.91371757     1.70769136     0.28354888     1.72351893    -1.27779922    -0.23556566    -0.14579328     0.42798554     0.69075831    -0.60567042    -1.92816716    -1.40248224    -1.88073513    -0.93026676    -1.62617253     0.75342187     1.24713132     1.03124295     0.30698072     1.12680716    -1.81872526    -1.99132177     1.47334421    -1.46682277    -1.00046617    -0.15783301     0.18399348    -0.38377005    -1.18462661     1.29671774     0.72786647    -0.00210860    -0.60502999    -0.42796894     0.87901313     0.42173728     0.64818129     0.13524585     1.89258959     1.95918490     1.93625383    -1.99090000    -1.91415656    -1.98387839    -1.99608940    -0.43525056    -1.01366758     0.60365580    -0.33156887     1.92301130    -0.48151623     1.00298831     1.31186428     1.54217643    -0.54764465    -0.21168936    -0.76522039    -1.43880813    -0.30719727    -0.99955072    -1.01508682    -1.23203418     0.62470503     0.82731761     0.98836803     0.33756859    -1.41284917     0.31849460    -1.74295999    -1.12271521     1.99619867     0.11659032     1.98676398    -0.57408188    -0.86407404     0.41151916     1.45722206     1.57250395     0.31585827     1.44622350     0.54186894    -0.68444163     1.36648546     0.72887494     1.97113936    -0.20242679    -1.99991180    -0.80682673    -0.79027507    -1.48738694     0.22691439     1.31542859     1.12033483     1.16827976     0.52781253     1.95867214     1.96398544    -1.46976703    -0.99244961    -1.70240792    -1.40910092     1.70845485    -0.09685010     1.73429684     0.76998208    -0.09982840    -0.31018005     1.39136086     0.06251958     1.75348927     0.16797205    -1.78061096    -1.17852710    -1.89871011     1.67156810     0.29264870    -0.38252361     0.58618253    -0.00723044    -0.41212765     1.93766061    -1.35427302    -0.66640272     1.16987206    -1.51929245     0.36325063     0.37484093    -1.16952530    -0.08876494    -1.35235812     0.61743141    -1.99617588     1.01418432     1.35164918     1.18717403    -1.97809131    -1.24403775    -0.32769089    -1.87928084    -1.82734191     0.40394517    -0.25454308    -0.37438949    -0.89344888    -0.10915571
     0.00000000    -1.83040041     0.46026168     1.61804683    -0.48689301     0.56074270     1.28785982     1.46915754    -0.15851261    -1.81396745     1.80663799    -1.68897186    -1.06052936    -0.08561489    -0.13412285    -0.25284071    -0.55214038     0.27354252    -0.83326694     0.72946592     1.79561405    -0.45029540     1.33725420     1.92579801    -0.92149918     1.88988296     1.49426632     0.59096851     1.95772342     1.09333698     0.98830052     1.03021449     1.23733400    -0.07685674     1.95059467    -1.69192891    -0.93635911    -1.51930788    -1.21988994    -1.42194551     0.44567675    -0.66387037     0.60306082    -0.56717773    -0.89248624     1.92196953    -1.17538659    -0.89662072    -1.45103431    -1.87073408     0.28324926    -0.40000401     0.72367388    -1.98858589     0.60445745     0.67785586     0.00394284    -1.85550576    -1.59184569    -0.83117502    -0.39210757     1.94917765     1.45137608    -0.65492498     1.92152538     0.59075114     0.56811092     1.03961185     0.89056444    -0.41034441    -0.22122704    -1.41038057    -1.97110534    -0.07132348    -1.37388067    -0.15614715    -1.40356211     0.17358228     1.56747215    -1.98520548    -1.54653042    -0.80801760    -0.64760598    -1.71645084     0.23115770     0.20394262    -0.54913179     1.19751794     0.17473615     1.16342057     0.51327765     1.93825245     0.01431037     1.00394733    -0.94067370    -0.77528242    -1.27559322    -1.53354141     0.39501443     1.66034979    -1.57563535    -1.21542943    -1.97630438     0.31135890    -1.98868714     0.93270189     1.86341780     1.32460645     1.68577923    -0.89649952     1.99322371     1.98945273    -0.07751209    -1.99486393     0.40453613     0.25359088     1.06525588    -0.62822217     0.95247636     0.90685956     0.05989212    -0.07661499    -0.37247889     0.37154811    -0.41334714    -1.98066033    -0.00883876    -1.17988082     0.75135371     0.20930022     1.14257118     0.91768649    -1.10566662    -1.13814793    -1.13060018    -1.22008399     0.01145049     1.50864643     1.44680067     1.09481290    -0.54594139     0.14946028     1.51087497    -0.66743119    -1.78729909    -0.57554992     0.73197978     0.80859533    -0.18156069    -1.38808875
     1.00000000     0.12663975     0.53483909     0.20442013     0.80438955     0.46526513     0.17937887     0.30875406     0.25027256     0.16882627     0.23151192     0.25813902     0.43329544     0.67363794     0.72211259     0.20912815     0.30564071     0.21682614     0.39066620     0.23943163     0.20868661     0.36256811     0.25962489     0.20820602     0.32063048     0.12691291     0.13892373     0.28409196     0.14317930     0.31285996     0.49958805     0.47728243     0.37337467     0.41506742     0.15417118     0.22766529     0.53282954     0.27215641     0.37435113     0.26353287     0.72648543     0.53738512     0.72360273     0.20393239     0.17746427     0.11844067     0.15759904     0.18288476     0.14201975     0.11786867     0.78760425     0.45713760     0.52963179     0.19745630     0.19749805     0.59124492     0.49850421     0.16223522     0.16913946     0.50231906     0.83433403     0.18570600     0.19317470     0.65647085     0.17570488     0.42027611     0.35203108     0.40468640     0.40362301     0.46614529     0.85992364     0.20058908     0.20053362     0.24734129     0.24107786     0.19963303     0.33516783     0.20090964     0.26409341     0.17581908     0.28081177     0.26480326     0.25692660     0.24715952     0.31796540     0.74894331     0.56496982     0.23248614     0.64029037     0.16028370     0.76661804     0.11420127     0.60562963     0.37987499     0.24406990     0.60512432     0.22948989     0.21706573     0.39668152     0.24781013     0.13663025     0.15786547     0.14152290     0.48033033     0.12733875     0.25936985     0.13529706     0.36179945     0.14599313     0.41726060     0.20068609     0.19785784     0.33991717     0.20066658     0.23593953     0.91531258     0.18848914     0.35924841     0.18141211     0.21661271     0.91807947     0.86790927     0.67460429     0.87865720     0.74587621     0.11523998     0.35284153     0.35258304     0.34093237     0.29832436     0.41026989     0.50437438     0.27852918     0.43416724     0.24347907     0.34845312     0.20060787     0.23231049     0.20324428     0.27716206     0.19190553     0.38910986     0.29497442     0.20091776     0.13273837     0.66915171     0.62477095     0.55741550     0.54608547     0.34028590
