TITLE = " "
VARIABLES = "x" "y" "f"
ZONE T="hsample", I=   15, J=    1, K=    1, F=BLOCK
    -1.72338912    -1.72338912    -1.72338912    -1.72338912    -1.72338912    -0.98839498     1.26431104     1.77508542    -0.08219641    -0.33133877    -0.96913462     0.80419977     0.08593693     1.02244436     1.98016180
     0.89716630     0.89716630     0.89716630     0.89716630     0.89716630    -1.86153732     1.25957845    -1.48784161    -0.14655766     1.93052360    -0.09450241    -0.07288196    -1.01963867    -1.97636545    -0.61806038
     5.00000000     5.23117921     8.57559638     7.73702840     8.77497743     9.44224585     8.18502028    10.36460090     5.02823540     8.83670676     5.94815262     5.65204904     6.04704817     9.95141285     9.30303937
