TITLE = " "
VARIABLES = "x" "y" "f"
ZONE T="hsample", I=   51, J=    1, K=    1, F=BLOCK
     2.50000000     5.00000000     5.00000000     0.00000000     0.00000000     1.07540281     4.22084676     2.73315776     0.10165769     1.47522138     4.87439280     3.29934848     0.31211394     4.06775708     1.66248971     0.97972673     1.46995859     3.25626731     2.58258842     3.34889641     1.50076566     3.29988958     2.30686685     2.42596817     3.60729263     1.65696063     1.17506092     4.88067460     2.94702590     2.01513730     2.19217074     3.80895699     4.73031735     3.24132559     2.58047932     2.34147122     2.11728189     2.83054463     1.98940943     0.39481991     0.54106502     0.00200419     0.63502526     1.16154363     0.93694046     1.85495588     0.83448674     1.77717455     0.12588298     1.09934815     1.30049035
     2.50000000     5.00000000     0.00000000     5.00000000     0.00000000     1.13178696     3.27222124     0.01537788     3.37534055     3.43349196     1.83859206     4.78700495     2.08262058     2.01005132     1.67673805     0.01047619     0.51837989     0.51706469     1.14198983     3.31869848     2.50486042     1.56610254     3.31269858     4.80624132     3.98837988     4.47595062     4.97567832     4.07604391     3.75862753     2.24993714     1.40311843     4.98124117     2.59084172     2.26331158     4.12309911     0.53731476     0.94354886     1.82554955     0.06448794     0.48470221     3.56837809     1.50149769     2.31053112     2.86492080     2.52499878     2.84797186     1.79838082     3.90608171     2.44110519     4.50275561     2.15131567
     7.09000000    14.18000000     7.09000000     7.09000000     0.00000000     3.17573995    10.75800617     3.91567827     8.93717284    10.29857325    11.30647932    14.54271030     4.73408286    12.22100936     7.74029437     1.41845851     3.52956439     6.50240275     7.82535878    11.85770663     7.49373778     8.89008953    12.17812990    17.73073308    16.97405050    16.85023241    17.78585809    16.26724190    12.79748633     9.94733231     7.52992117    15.18512920    11.79645592     8.76745622    11.25794268     4.36205677     4.83184216     7.30867420     2.93737783     1.81311553     9.99373803     5.34075563     9.11454150    13.73267258    11.98023192     6.78103752     3.80431034     8.92533559     4.18149467    17.37338811     9.39991477
