TITLE = " "
VARIABLES = "x" "y" "f"
ZONE T="hsample", I=   15, J=    1, K=    1, F=BLOCK
     0.00000000     0.87889651    -0.38634571    -1.31236117     1.14584346    -1.92514115    -1.03146739     1.98219834    -0.13352432    -1.49741476     1.98209659     1.99915382    -1.99475730     1.99306972    -1.99914039
     0.00000000    -1.80898634    -0.63347276     1.22335336     0.89990506    -1.99753780    -1.99309811    -0.79050987    -1.93011865    -1.21117799    -1.99746782     1.47631276     0.54181743     0.75927463     1.39021254
     1.00000000   666.40071150    63.18948244    30.24097459    17.08247961  3261.78293300   938.66587360  2228.44612400   380.73478340  1198.85423300  3512.91916900   636.19114600  1190.42992900  1033.35667300   688.30075660
